  COHP#       atomMU       atomNU     distance     translation      ICOHP (at) eF   for spin  1
      1           O5          Ru2      2.02579       0   0   0           -1.56514 
      1        O5_2s       Ru2_5s      2.02579       0   0   0           -0.37794 
      1      O5_2p_y       Ru2_5s      2.02579       0   0   0           -0.01159 
      1      O5_2p_z       Ru2_5s      2.02579       0   0   0           -0.12827 
      1      O5_2p_x       Ru2_5s      2.02579       0   0   0           -0.01741 
      1        O5_2s     Ru2_4p_y      2.02579       0   0   0            0.00072 
      1      O5_2p_y     Ru2_4p_y      2.02579       0   0   0           -0.00001 
      1      O5_2p_z     Ru2_4p_y      2.02579       0   0   0            0.00074 
      1      O5_2p_x     Ru2_4p_y      2.02579       0   0   0            0.00009 
      1        O5_2s     Ru2_4p_z      2.02579       0   0   0            0.00375 
      1      O5_2p_y     Ru2_4p_z      2.02579       0   0   0           -0.00101 
      1      O5_2p_z     Ru2_4p_z      2.02579       0   0   0            0.00082 
      1      O5_2p_x     Ru2_4p_z      2.02579       0   0   0            0.00000 
      1        O5_2s     Ru2_4p_x      2.02579       0   0   0            0.00031 
      1      O5_2p_y     Ru2_4p_x      2.02579       0   0   0           -0.00027 
      1      O5_2p_z     Ru2_4p_x      2.02579       0   0   0           -0.00118 
      1      O5_2p_x     Ru2_4p_x      2.02579       0   0   0            0.00012 
      1        O5_2s    Ru2_4d_xy      2.02579       0   0   0           -0.00761 
      1      O5_2p_y    Ru2_4d_xy      2.02579       0   0   0           -0.00183 
      1      O5_2p_z    Ru2_4d_xy      2.02579       0   0   0           -0.03099 
      1      O5_2p_x    Ru2_4d_xy      2.02579       0   0   0           -0.00504 
      1        O5_2s    Ru2_4d_yz      2.02579       0   0   0           -0.07170 
      1      O5_2p_y    Ru2_4d_yz      2.02579       0   0   0           -0.00603 
      1      O5_2p_z    Ru2_4d_yz      2.02579       0   0   0           -0.16132 
      1      O5_2p_x    Ru2_4d_yz      2.02579       0   0   0           -0.02651 
      1        O5_2s   Ru2_4d_z^2      2.02579       0   0   0           -0.11703 
      1      O5_2p_y   Ru2_4d_z^2      2.02579       0   0   0           -0.09318 
      1      O5_2p_z   Ru2_4d_z^2      2.02579       0   0   0           -0.14261 
      1      O5_2p_x   Ru2_4d_z^2      2.02579       0   0   0           -0.10984 
      1        O5_2s    Ru2_4d_xz      2.02579       0   0   0           -0.04529 
      1      O5_2p_y    Ru2_4d_xz      2.02579       0   0   0           -0.01577 
      1      O5_2p_z    Ru2_4d_xz      2.02579       0   0   0           -0.16965 
      1      O5_2p_x    Ru2_4d_xz      2.02579       0   0   0           -0.01457 
      1        O5_2s Ru2_4d_x^2-y^2      2.02579       0   0   0           -0.00033 
      1      O5_2p_y Ru2_4d_x^2-y^2      2.02579       0   0   0           -0.00561 
      1      O5_2p_z Ru2_4d_x^2-y^2      2.02579       0   0   0            0.00009 
      1      O5_2p_x Ru2_4d_x^2-y^2      2.02579       0   0   0           -0.00914 
      2           O7          Ru2      1.88585       0   0   0           -2.44535 
      2        O7_2s       Ru2_5s      1.88585       0   0   0           -0.54706 
      2      O7_2p_y       Ru2_5s      1.88585       0   0   0           -0.09387 
      2      O7_2p_z       Ru2_5s      1.88585       0   0   0           -0.00150 
      2      O7_2p_x       Ru2_5s      1.88585       0   0   0           -0.08688 
      2        O7_2s     Ru2_4p_y      1.88585       0   0   0            0.00093 
      2      O7_2p_y     Ru2_4p_y      1.88585       0   0   0           -0.00881 
      2      O7_2p_z     Ru2_4p_y      1.88585       0   0   0           -0.00035 
      2      O7_2p_x     Ru2_4p_y      1.88585       0   0   0           -0.01217 
      2        O7_2s     Ru2_4p_z      1.88585       0   0   0            0.00006 
      2      O7_2p_y     Ru2_4p_z      1.88585       0   0   0            0.00004 
      2      O7_2p_z     Ru2_4p_z      1.88585       0   0   0            0.00154 
      2      O7_2p_x     Ru2_4p_z      1.88585       0   0   0           -0.00002 
      2        O7_2s     Ru2_4p_x      1.88585       0   0   0            0.00035 
      2      O7_2p_y     Ru2_4p_x      1.88585       0   0   0           -0.00487 
      2      O7_2p_z     Ru2_4p_x      1.88585       0   0   0           -0.00033 
      2      O7_2p_x     Ru2_4p_x      1.88585       0   0   0           -0.00537 
      2        O7_2s    Ru2_4d_xy      1.88585       0   0   0           -0.25335 
      2      O7_2p_y    Ru2_4d_xy      1.88585       0   0   0           -0.40594 
      2      O7_2p_z    Ru2_4d_xy      1.88585       0   0   0           -0.01765 
      2      O7_2p_x    Ru2_4d_xy      1.88585       0   0   0           -0.20781 
      2        O7_2s    Ru2_4d_yz      1.88585       0   0   0           -0.00945 
      2      O7_2p_y    Ru2_4d_yz      1.88585       0   0   0           -0.00703 
      2      O7_2p_z    Ru2_4d_yz      1.88585       0   0   0           -0.16076 
      2      O7_2p_x    Ru2_4d_yz      1.88585       0   0   0           -0.01414 
      2        O7_2s   Ru2_4d_z^2      1.88585       0   0   0           -0.07787 
      2      O7_2p_y   Ru2_4d_z^2      1.88585       0   0   0           -0.11753 
      2      O7_2p_z   Ru2_4d_z^2      1.88585       0   0   0           -0.01817 
      2      O7_2p_x   Ru2_4d_z^2      1.88585       0   0   0           -0.07001 
      2        O7_2s    Ru2_4d_xz      1.88585       0   0   0           -0.00823 
      2      O7_2p_y    Ru2_4d_xz      1.88585       0   0   0           -0.01216 
      2      O7_2p_z    Ru2_4d_xz      1.88585       0   0   0           -0.12431 
      2      O7_2p_x    Ru2_4d_xz      1.88585       0   0   0           -0.00404 
      2        O7_2s Ru2_4d_x^2-y^2      1.88585       0   0   0           -0.00175 
      2      O7_2p_y Ru2_4d_x^2-y^2      1.88585       0   0   0           -0.06553 
      2      O7_2p_z Ru2_4d_x^2-y^2      1.88585       0   0   0           -0.00033 
      2      O7_2p_x Ru2_4d_x^2-y^2      1.88585       0   0   0           -0.11099 
      3           O8          Ru2      1.87388       0   1   0           -2.50685 
      3        O8_2s       Ru2_5s      1.87388       0   1   0           -0.54829 
      3      O8_2p_y       Ru2_5s      1.87388       0   1   0           -0.05449 
      3      O8_2p_z       Ru2_5s      1.87388       0   1   0           -0.05025 
      3      O8_2p_x       Ru2_5s      1.87388       0   1   0           -0.07167 
      3        O8_2s     Ru2_4p_y      1.87388       0   1   0            0.00095 
      3      O8_2p_y     Ru2_4p_y      1.87388       0   1   0           -0.00186 
      3      O8_2p_z     Ru2_4p_y      1.87388       0   1   0           -0.00406 
      3      O8_2p_x     Ru2_4p_y      1.87388       0   1   0           -0.00633 
      3        O8_2s     Ru2_4p_z      1.87388       0   1   0            0.00031 
      3      O8_2p_y     Ru2_4p_z      1.87388       0   1   0           -0.00402 
      3      O8_2p_z     Ru2_4p_z      1.87388       0   1   0           -0.00122 
      3      O8_2p_x     Ru2_4p_z      1.87388       0   1   0           -0.00561 
      3        O8_2s     Ru2_4p_x      1.87388       0   1   0            0.00204 
      3      O8_2p_y     Ru2_4p_x      1.87388       0   1   0           -0.00444 
      3      O8_2p_z     Ru2_4p_x      1.87388       0   1   0           -0.00420 
      3      O8_2p_x     Ru2_4p_x      1.87388       0   1   0           -0.00220 
      3        O8_2s    Ru2_4d_xy      1.87388       0   1   0           -0.17566 
      3      O8_2p_y    Ru2_4d_xy      1.87388       0   1   0           -0.03684 
      3      O8_2p_z    Ru2_4d_xy      1.87388       0   1   0           -0.19658 
      3      O8_2p_x    Ru2_4d_xy      1.87388       0   1   0           -0.10963 
      3        O8_2s    Ru2_4d_yz      1.87388       0   1   0           -0.09799 
      3      O8_2p_y    Ru2_4d_yz      1.87388       0   1   0           -0.02495 
      3      O8_2p_z    Ru2_4d_yz      1.87388       0   1   0           -0.00899 
      3      O8_2p_x    Ru2_4d_yz      1.87388       0   1   0           -0.24775 
      3        O8_2s   Ru2_4d_z^2      1.87388       0   1   0           -0.00826 
      3      O8_2p_y   Ru2_4d_z^2      1.87388       0   1   0           -0.01023 
      3      O8_2p_z   Ru2_4d_z^2      1.87388       0   1   0           -0.13268 
      3      O8_2p_x   Ru2_4d_z^2      1.87388       0   1   0           -0.00615 
      3        O8_2s    Ru2_4d_xz      1.87388       0   1   0           -0.12085 
      3      O8_2p_y    Ru2_4d_xz      1.87388       0   1   0           -0.25221 
      3      O8_2p_z    Ru2_4d_xz      1.87388       0   1   0           -0.00405 
      3      O8_2p_x    Ru2_4d_xz      1.87388       0   1   0           -0.09193 
      3        O8_2s Ru2_4d_x^2-y^2      1.87388       0   1   0           -0.00335 
      3      O8_2p_y Ru2_4d_x^2-y^2      1.87388       0   1   0           -0.14335 
      3      O8_2p_z Ru2_4d_x^2-y^2      1.87388       0   1   0           -0.00062 
      3      O8_2p_x Ru2_4d_x^2-y^2      1.87388       0   1   0           -0.07944 
      4          O10          Ru2      2.04773       0   1   0           -1.47991 
      4       O10_2s       Ru2_5s      2.04773       0   1   0           -0.35851 
      4     O10_2p_y       Ru2_5s      2.04773       0   1   0           -0.07757 
      4     O10_2p_z       Ru2_5s      2.04773       0   1   0           -0.01452 
      4     O10_2p_x       Ru2_5s      2.04773       0   1   0           -0.07808 
      4       O10_2s     Ru2_4p_y      2.04773       0   1   0            0.00221 
      4     O10_2p_y     Ru2_4p_y      2.04773       0   1   0            0.00068 
      4     O10_2p_z     Ru2_4p_y      2.04773       0   1   0            0.00044 
      4     O10_2p_x     Ru2_4p_y      2.04773       0   1   0            0.00044 
      4       O10_2s     Ru2_4p_z      2.04773       0   1   0            0.00013 
      4     O10_2p_y     Ru2_4p_z      2.04773       0   1   0           -0.00052 
      4     O10_2p_z     Ru2_4p_z      2.04773       0   1   0           -0.00008 
      4     O10_2p_x     Ru2_4p_z      2.04773       0   1   0           -0.00045 
      4       O10_2s     Ru2_4p_x      2.04773       0   1   0            0.00209 
      4     O10_2p_y     Ru2_4p_x      2.04773       0   1   0           -0.00054 
      4     O10_2p_z     Ru2_4p_x      2.04773       0   1   0            0.00030 
      4     O10_2p_x     Ru2_4p_x      2.04773       0   1   0           -0.00077 
      4       O10_2s    Ru2_4d_xy      2.04773       0   1   0           -0.15603 
      4     O10_2p_y    Ru2_4d_xy      2.04773       0   1   0           -0.15546 
      4     O10_2p_z    Ru2_4d_xy      2.04773       0   1   0           -0.05148 
      4     O10_2p_x    Ru2_4d_xy      2.04773       0   1   0           -0.16928 
      4       O10_2s    Ru2_4d_yz      2.04773       0   1   0           -0.01533 
      4     O10_2p_y    Ru2_4d_yz      2.04773       0   1   0           -0.01374 
      4     O10_2p_z    Ru2_4d_yz      2.04773       0   1   0           -0.01658 
      4     O10_2p_x    Ru2_4d_yz      2.04773       0   1   0           -0.05044 
      4       O10_2s   Ru2_4d_z^2      2.04773       0   1   0           -0.04629 
      4     O10_2p_y   Ru2_4d_z^2      2.04773       0   1   0           -0.03729 
      4     O10_2p_z   Ru2_4d_z^2      2.04773       0   1   0           -0.03535 
      4     O10_2p_x   Ru2_4d_z^2      2.04773       0   1   0           -0.03270 
      4       O10_2s    Ru2_4d_xz      2.04773       0   1   0           -0.01231 
      4     O10_2p_y    Ru2_4d_xz      2.04773       0   1   0           -0.03034 
      4     O10_2p_z    Ru2_4d_xz      2.04773       0   1   0           -0.01144 
      4     O10_2p_x    Ru2_4d_xz      2.04773       0   1   0           -0.02863 
      4       O10_2s Ru2_4d_x^2-y^2      2.04773       0   1   0           -0.00004 
      4     O10_2p_y Ru2_4d_x^2-y^2      2.04773       0   1   0           -0.03834 
      4     O10_2p_z Ru2_4d_x^2-y^2      2.04773       0   1   0           -0.00003 
      4     O10_2p_x Ru2_4d_x^2-y^2      2.04773       0   1   0           -0.05405 
      5          O11          Ru2      1.99364       0   0   0           -1.76492 
      5       O11_2s       Ru2_5s      1.99364       0   0   0           -0.43853 
      5     O11_2p_y       Ru2_5s      1.99364       0   0   0           -0.05432 
      5     O11_2p_z       Ru2_5s      1.99364       0   0   0           -0.02316 
      5     O11_2p_x       Ru2_5s      1.99364       0   0   0           -0.09379 
      5       O11_2s     Ru2_4p_y      1.99364       0   0   0            0.00172 
      5     O11_2p_y     Ru2_4p_y      1.99364       0   0   0           -0.00094 
      5     O11_2p_z     Ru2_4p_y      1.99364       0   0   0           -0.00043 
      5     O11_2p_x     Ru2_4p_y      1.99364       0   0   0           -0.00036 
      5       O11_2s     Ru2_4p_z      1.99364       0   0   0            0.00093 
      5     O11_2p_y     Ru2_4p_z      1.99364       0   0   0            0.00089 
      5     O11_2p_z     Ru2_4p_z      1.99364       0   0   0            0.00005 
      5     O11_2p_x     Ru2_4p_z      1.99364       0   0   0            0.00033 
      5       O11_2s     Ru2_4p_x      1.99364       0   0   0            0.00230 
      5     O11_2p_y     Ru2_4p_x      1.99364       0   0   0           -0.00107 
      5     O11_2p_z     Ru2_4p_x      1.99364       0   0   0           -0.00184 
      5     O11_2p_x     Ru2_4p_x      1.99364       0   0   0           -0.00332 
      5       O11_2s    Ru2_4d_xy      1.99364       0   0   0           -0.13688 
      5     O11_2p_y    Ru2_4d_xy      1.99364       0   0   0           -0.03896 
      5     O11_2p_z    Ru2_4d_xy      1.99364       0   0   0           -0.10561 
      5     O11_2p_x    Ru2_4d_xy      1.99364       0   0   0           -0.18407 
      5       O11_2s    Ru2_4d_yz      1.99364       0   0   0           -0.04417 
      5     O11_2p_y    Ru2_4d_yz      1.99364       0   0   0           -0.01186 
      5     O11_2p_z    Ru2_4d_yz      1.99364       0   0   0           -0.00014 
      5     O11_2p_x    Ru2_4d_yz      1.99364       0   0   0           -0.09457 
      5       O11_2s   Ru2_4d_z^2      1.99364       0   0   0           -0.01882 
      5     O11_2p_y   Ru2_4d_z^2      1.99364       0   0   0           -0.00525 
      5     O11_2p_z   Ru2_4d_z^2      1.99364       0   0   0           -0.07451 
      5     O11_2p_x   Ru2_4d_z^2      1.99364       0   0   0           -0.01233 
      5       O11_2s    Ru2_4d_xz      1.99364       0   0   0           -0.06724 
      5     O11_2p_y    Ru2_4d_xz      1.99364       0   0   0           -0.13377 
      5     O11_2p_z    Ru2_4d_xz      1.99364       0   0   0           -0.00142 
      5     O11_2p_x    Ru2_4d_xz      1.99364       0   0   0           -0.06993 
      5       O11_2s Ru2_4d_x^2-y^2      1.99364       0   0   0           -0.00645 
      5     O11_2p_y Ru2_4d_x^2-y^2      1.99364       0   0   0           -0.13821 
      5     O11_2p_z Ru2_4d_x^2-y^2      1.99364       0   0   0            0.00076 
      5     O11_2p_x Ru2_4d_x^2-y^2      1.99364       0   0   0           -0.00994 
      6          O14          Ru2      1.84571       0   1  -1           -2.73217 
      6       O14_2s       Ru2_5s      1.84571       0   1  -1           -0.59260 
      6     O14_2p_y       Ru2_5s      1.84571       0   1  -1           -0.03220 
      6     O14_2p_z       Ru2_5s      1.84571       0   1  -1           -0.14358 
      6     O14_2p_x       Ru2_5s      1.84571       0   1  -1           -0.01002 
      6       O14_2s     Ru2_4p_y      1.84571       0   1  -1           -0.00026 
      6     O14_2p_y     Ru2_4p_y      1.84571       0   1  -1            0.00015 
      6     O14_2p_z     Ru2_4p_y      1.84571       0   1  -1           -0.00559 
      6     O14_2p_x     Ru2_4p_y      1.84571       0   1  -1           -0.00051 
      6       O14_2s     Ru2_4p_z      1.84571       0   1  -1            0.00194 
      6     O14_2p_y     Ru2_4p_z      1.84571       0   1  -1           -0.00720 
      6     O14_2p_z     Ru2_4p_z      1.84571       0   1  -1           -0.02412 
      6     O14_2p_x     Ru2_4p_z      1.84571       0   1  -1           -0.00112 
      6       O14_2s     Ru2_4p_x      1.84571       0   1  -1            0.00039 
      6     O14_2p_y     Ru2_4p_x      1.84571       0   1  -1           -0.00050 
      6     O14_2p_z     Ru2_4p_x      1.84571       0   1  -1           -0.00034 
      6     O14_2p_x     Ru2_4p_x      1.84571       0   1  -1            0.00087 
      6       O14_2s    Ru2_4d_xy      1.84571       0   1  -1           -0.01278 
      6     O14_2p_y    Ru2_4d_xy      1.84571       0   1  -1           -0.00034 
      6     O14_2p_z    Ru2_4d_xy      1.84571       0   1  -1           -0.05022 
      6     O14_2p_x    Ru2_4d_xy      1.84571       0   1  -1           -0.03729 
      6       O14_2s    Ru2_4d_yz      1.84571       0   1  -1           -0.16237 
      6     O14_2p_y    Ru2_4d_yz      1.84571       0   1  -1           -0.00851 
      6     O14_2p_z    Ru2_4d_yz      1.84571       0   1  -1           -0.44651 
      6     O14_2p_x    Ru2_4d_yz      1.84571       0   1  -1           -0.05713 
      6       O14_2s   Ru2_4d_z^2      1.84571       0   1  -1           -0.20347 
      6     O14_2p_y   Ru2_4d_z^2      1.84571       0   1  -1           -0.27056 
      6     O14_2p_z   Ru2_4d_z^2      1.84571       0   1  -1           -0.11548 
      6     O14_2p_x   Ru2_4d_z^2      1.84571       0   1  -1           -0.12319 
      6       O14_2s    Ru2_4d_xz      1.84571       0   1  -1           -0.05584 
      6     O14_2p_y    Ru2_4d_xz      1.84571       0   1  -1           -0.03379 
      6     O14_2p_z    Ru2_4d_xz      1.84571       0   1  -1           -0.12187 
      6     O14_2p_x    Ru2_4d_xz      1.84571       0   1  -1           -0.15180 
      6       O14_2s Ru2_4d_x^2-y^2      1.84571       0   1  -1           -0.00419 
      6     O14_2p_y Ru2_4d_x^2-y^2      1.84571       0   1  -1           -0.01791 
      6     O14_2p_z Ru2_4d_x^2-y^2      1.84571       0   1  -1           -0.01774 
      6     O14_2p_x Ru2_4d_x^2-y^2      1.84571       0   1  -1           -0.02652 
  COHP#       atomMU       atomNU     distance     translation      ICOHP (at) eF   for spin  2
      1           O5          Ru2      2.02579       0   0   0           -1.56494 
      1        O5_2s       Ru2_5s      2.02579       0   0   0           -0.37773 
      1      O5_2p_y       Ru2_5s      2.02579       0   0   0           -0.01161 
      1      O5_2p_z       Ru2_5s      2.02579       0   0   0           -0.12826 
      1      O5_2p_x       Ru2_5s      2.02579       0   0   0           -0.01741 
      1        O5_2s     Ru2_4p_y      2.02579       0   0   0            0.00072 
      1      O5_2p_y     Ru2_4p_y      2.02579       0   0   0           -0.00001 
      1      O5_2p_z     Ru2_4p_y      2.02579       0   0   0            0.00074 
      1      O5_2p_x     Ru2_4p_y      2.02579       0   0   0            0.00009 
      1        O5_2s     Ru2_4p_z      2.02579       0   0   0            0.00375 
      1      O5_2p_y     Ru2_4p_z      2.02579       0   0   0           -0.00101 
      1      O5_2p_z     Ru2_4p_z      2.02579       0   0   0            0.00082 
      1      O5_2p_x     Ru2_4p_z      2.02579       0   0   0            0.00000 
      1        O5_2s     Ru2_4p_x      2.02579       0   0   0            0.00031 
      1      O5_2p_y     Ru2_4p_x      2.02579       0   0   0           -0.00027 
      1      O5_2p_z     Ru2_4p_x      2.02579       0   0   0           -0.00118 
      1      O5_2p_x     Ru2_4p_x      2.02579       0   0   0            0.00012 
      1        O5_2s    Ru2_4d_xy      2.02579       0   0   0           -0.00761 
      1      O5_2p_y    Ru2_4d_xy      2.02579       0   0   0           -0.00183 
      1      O5_2p_z    Ru2_4d_xy      2.02579       0   0   0           -0.03099 
      1      O5_2p_x    Ru2_4d_xy      2.02579       0   0   0           -0.00504 
      1        O5_2s    Ru2_4d_yz      2.02579       0   0   0           -0.07170 
      1      O5_2p_y    Ru2_4d_yz      2.02579       0   0   0           -0.00603 
      1      O5_2p_z    Ru2_4d_yz      2.02579       0   0   0           -0.16133 
      1      O5_2p_x    Ru2_4d_yz      2.02579       0   0   0           -0.02651 
      1        O5_2s   Ru2_4d_z^2      2.02579       0   0   0           -0.11703 
      1      O5_2p_y   Ru2_4d_z^2      2.02579       0   0   0           -0.09319 
      1      O5_2p_z   Ru2_4d_z^2      2.02579       0   0   0           -0.14261 
      1      O5_2p_x   Ru2_4d_z^2      2.02579       0   0   0           -0.10984 
      1        O5_2s    Ru2_4d_xz      2.02579       0   0   0           -0.04530 
      1      O5_2p_y    Ru2_4d_xz      2.02579       0   0   0           -0.01577 
      1      O5_2p_z    Ru2_4d_xz      2.02579       0   0   0           -0.16966 
      1      O5_2p_x    Ru2_4d_xz      2.02579       0   0   0           -0.01457 
      1        O5_2s Ru2_4d_x^2-y^2      2.02579       0   0   0           -0.00033 
      1      O5_2p_y Ru2_4d_x^2-y^2      2.02579       0   0   0           -0.00561 
      1      O5_2p_z Ru2_4d_x^2-y^2      2.02579       0   0   0            0.00009 
      1      O5_2p_x Ru2_4d_x^2-y^2      2.02579       0   0   0           -0.00914 
      2           O7          Ru2      1.88585       0   0   0           -2.44500 
      2        O7_2s       Ru2_5s      1.88585       0   0   0           -0.54678 
      2      O7_2p_y       Ru2_5s      1.88585       0   0   0           -0.09376 
      2      O7_2p_z       Ru2_5s      1.88585       0   0   0           -0.00150 
      2      O7_2p_x       Ru2_5s      1.88585       0   0   0           -0.08692 
      2        O7_2s     Ru2_4p_y      1.88585       0   0   0            0.00093 
      2      O7_2p_y     Ru2_4p_y      1.88585       0   0   0           -0.00881 
      2      O7_2p_z     Ru2_4p_y      1.88585       0   0   0           -0.00035 
      2      O7_2p_x     Ru2_4p_y      1.88585       0   0   0           -0.01217 
      2        O7_2s     Ru2_4p_z      1.88585       0   0   0            0.00006 
      2      O7_2p_y     Ru2_4p_z      1.88585       0   0   0            0.00004 
      2      O7_2p_z     Ru2_4p_z      1.88585       0   0   0            0.00154 
      2      O7_2p_x     Ru2_4p_z      1.88585       0   0   0           -0.00002 
      2        O7_2s     Ru2_4p_x      1.88585       0   0   0            0.00035 
      2      O7_2p_y     Ru2_4p_x      1.88585       0   0   0           -0.00487 
      2      O7_2p_z     Ru2_4p_x      1.88585       0   0   0           -0.00033 
      2      O7_2p_x     Ru2_4p_x      1.88585       0   0   0           -0.00537 
      2        O7_2s    Ru2_4d_xy      1.88585       0   0   0           -0.25336 
      2      O7_2p_y    Ru2_4d_xy      1.88585       0   0   0           -0.40595 
      2      O7_2p_z    Ru2_4d_xy      1.88585       0   0   0           -0.01765 
      2      O7_2p_x    Ru2_4d_xy      1.88585       0   0   0           -0.20781 
      2        O7_2s    Ru2_4d_yz      1.88585       0   0   0           -0.00945 
      2      O7_2p_y    Ru2_4d_yz      1.88585       0   0   0           -0.00703 
      2      O7_2p_z    Ru2_4d_yz      1.88585       0   0   0           -0.16075 
      2      O7_2p_x    Ru2_4d_yz      1.88585       0   0   0           -0.01414 
      2        O7_2s   Ru2_4d_z^2      1.88585       0   0   0           -0.07787 
      2      O7_2p_y   Ru2_4d_z^2      1.88585       0   0   0           -0.11753 
      2      O7_2p_z   Ru2_4d_z^2      1.88585       0   0   0           -0.01817 
      2      O7_2p_x   Ru2_4d_z^2      1.88585       0   0   0           -0.07001 
      2        O7_2s    Ru2_4d_xz      1.88585       0   0   0           -0.00823 
      2      O7_2p_y    Ru2_4d_xz      1.88585       0   0   0           -0.01216 
      2      O7_2p_z    Ru2_4d_xz      1.88585       0   0   0           -0.12431 
      2      O7_2p_x    Ru2_4d_xz      1.88585       0   0   0           -0.00404 
      2        O7_2s Ru2_4d_x^2-y^2      1.88585       0   0   0           -0.00175 
      2      O7_2p_y Ru2_4d_x^2-y^2      1.88585       0   0   0           -0.06553 
      2      O7_2p_z Ru2_4d_x^2-y^2      1.88585       0   0   0           -0.00033 
      2      O7_2p_x Ru2_4d_x^2-y^2      1.88585       0   0   0           -0.11099 
      3           O8          Ru2      1.87388       0   1   0           -2.50648 
      3        O8_2s       Ru2_5s      1.87388       0   1   0           -0.54791 
      3      O8_2p_y       Ru2_5s      1.87388       0   1   0           -0.05450 
      3      O8_2p_z       Ru2_5s      1.87388       0   1   0           -0.05034 
      3      O8_2p_x       Ru2_5s      1.87388       0   1   0           -0.07161 
      3        O8_2s     Ru2_4p_y      1.87388       0   1   0            0.00095 
      3      O8_2p_y     Ru2_4p_y      1.87388       0   1   0           -0.00186 
      3      O8_2p_z     Ru2_4p_y      1.87388       0   1   0           -0.00406 
      3      O8_2p_x     Ru2_4p_y      1.87388       0   1   0           -0.00633 
      3        O8_2s     Ru2_4p_z      1.87388       0   1   0            0.00031 
      3      O8_2p_y     Ru2_4p_z      1.87388       0   1   0           -0.00402 
      3      O8_2p_z     Ru2_4p_z      1.87388       0   1   0           -0.00122 
      3      O8_2p_x     Ru2_4p_z      1.87388       0   1   0           -0.00561 
      3        O8_2s     Ru2_4p_x      1.87388       0   1   0            0.00204 
      3      O8_2p_y     Ru2_4p_x      1.87388       0   1   0           -0.00444 
      3      O8_2p_z     Ru2_4p_x      1.87388       0   1   0           -0.00420 
      3      O8_2p_x     Ru2_4p_x      1.87388       0   1   0           -0.00220 
      3        O8_2s    Ru2_4d_xy      1.87388       0   1   0           -0.17566 
      3      O8_2p_y    Ru2_4d_xy      1.87388       0   1   0           -0.03684 
      3      O8_2p_z    Ru2_4d_xy      1.87388       0   1   0           -0.19658 
      3      O8_2p_x    Ru2_4d_xy      1.87388       0   1   0           -0.10963 
      3        O8_2s    Ru2_4d_yz      1.87388       0   1   0           -0.09799 
      3      O8_2p_y    Ru2_4d_yz      1.87388       0   1   0           -0.02495 
      3      O8_2p_z    Ru2_4d_yz      1.87388       0   1   0           -0.00899 
      3      O8_2p_x    Ru2_4d_yz      1.87388       0   1   0           -0.24775 
      3        O8_2s   Ru2_4d_z^2      1.87388       0   1   0           -0.00827 
      3      O8_2p_y   Ru2_4d_z^2      1.87388       0   1   0           -0.01023 
      3      O8_2p_z   Ru2_4d_z^2      1.87388       0   1   0           -0.13268 
      3      O8_2p_x   Ru2_4d_z^2      1.87388       0   1   0           -0.00615 
      3        O8_2s    Ru2_4d_xz      1.87388       0   1   0           -0.12085 
      3      O8_2p_y    Ru2_4d_xz      1.87388       0   1   0           -0.25220 
      3      O8_2p_z    Ru2_4d_xz      1.87388       0   1   0           -0.00405 
      3      O8_2p_x    Ru2_4d_xz      1.87388       0   1   0           -0.09192 
      3        O8_2s Ru2_4d_x^2-y^2      1.87388       0   1   0           -0.00335 
      3      O8_2p_y Ru2_4d_x^2-y^2      1.87388       0   1   0           -0.14335 
      3      O8_2p_z Ru2_4d_x^2-y^2      1.87388       0   1   0           -0.00062 
      3      O8_2p_x Ru2_4d_x^2-y^2      1.87388       0   1   0           -0.07945 
      4          O10          Ru2      2.04773       0   1   0           -1.47973 
      4       O10_2s       Ru2_5s      2.04773       0   1   0           -0.35830 
      4     O10_2p_y       Ru2_5s      2.04773       0   1   0           -0.07760 
      4     O10_2p_z       Ru2_5s      2.04773       0   1   0           -0.01451 
      4     O10_2p_x       Ru2_5s      2.04773       0   1   0           -0.07806 
      4       O10_2s     Ru2_4p_y      2.04773       0   1   0            0.00221 
      4     O10_2p_y     Ru2_4p_y      2.04773       0   1   0            0.00068 
      4     O10_2p_z     Ru2_4p_y      2.04773       0   1   0            0.00044 
      4     O10_2p_x     Ru2_4p_y      2.04773       0   1   0            0.00044 
      4       O10_2s     Ru2_4p_z      2.04773       0   1   0            0.00013 
      4     O10_2p_y     Ru2_4p_z      2.04773       0   1   0           -0.00052 
      4     O10_2p_z     Ru2_4p_z      2.04773       0   1   0           -0.00008 
      4     O10_2p_x     Ru2_4p_z      2.04773       0   1   0           -0.00045 
      4       O10_2s     Ru2_4p_x      2.04773       0   1   0            0.00209 
      4     O10_2p_y     Ru2_4p_x      2.04773       0   1   0           -0.00054 
      4     O10_2p_z     Ru2_4p_x      2.04773       0   1   0            0.00030 
      4     O10_2p_x     Ru2_4p_x      2.04773       0   1   0           -0.00077 
      4       O10_2s    Ru2_4d_xy      2.04773       0   1   0           -0.15603 
      4     O10_2p_y    Ru2_4d_xy      2.04773       0   1   0           -0.15547 
      4     O10_2p_z    Ru2_4d_xy      2.04773       0   1   0           -0.05148 
      4     O10_2p_x    Ru2_4d_xy      2.04773       0   1   0           -0.16929 
      4       O10_2s    Ru2_4d_yz      2.04773       0   1   0           -0.01533 
      4     O10_2p_y    Ru2_4d_yz      2.04773       0   1   0           -0.01374 
      4     O10_2p_z    Ru2_4d_yz      2.04773       0   1   0           -0.01658 
      4     O10_2p_x    Ru2_4d_yz      2.04773       0   1   0           -0.05044 