       N       E                     dE             d eps       ncg     rms          rms(c)
DAV:   1     0.125326780238E+04    0.12533E+04   -0.72916E+04312888   0.149E+03
DAV:   2    -0.315619339914E+02   -0.12848E+04   -0.12176E+04348696   0.433E+02
DAV:   3    -0.986224901084E+02   -0.67061E+02   -0.65337E+02374910   0.104E+02
DAV:   4    -0.994082838683E+02   -0.78579E+00   -0.77976E+00368694   0.114E+01
DAV:   5    -0.994145825059E+02   -0.62986E-02   -0.62960E-02350784   0.109E+00
DAV:   6    -0.994146366056E+02   -0.54100E-04   -0.54097E-04351066   0.101E-01
DAV:   7    -0.994146374108E+02   -0.80514E-06   -0.80513E-06341280   0.115E-02
   1 F= -.99414637E+02 E0= -.99410613E+02  d E =-.804809E-02  mag=    -0.0001
