 vasp.6.2.1 16May21 (build Dec 19 2022 15:45:47) complex                         
 executed on    LinuxNV_CrayMPICH date 2023.03.24  12:12:46
 running on    4 total cores
 distrk:  each k-point on    1 cores,    4 groups
 distr:  one band on NCORE=   1 cores,    1 groups


--------------------------------------------------------------------------------------------------------


 INCAR:
   AMIX = 0.100000
   AMIX_MAG = 0.100000
   BMIX = 0.000010
   BMIX_MAG = 0.000010
   ENCUT = 600.000000
   SIGMA = 0.050000
   EDIFF = 1.00e-06
   EDIFFG = -2.00e-02
   ALGO = normal
   GGA = PE
   PREC = Normal
   IBRION = 2
   ICHARG = 11
   ISIF = 3
   ISMEAR = 0
   ISPIN = 2
   ISTART = 1
   ISYM = 0
   KPAR = 4
   LDAUPRINT = 2
   LDAUTYPE = 2
   LMAXMIX = 6
   LORBIT = 11
   NBANDS = 40
   NELM = 250
   NPAR = 1
   NSW = 0
   NEDOS = 3000
   INIMIX = 0
   LAECHG = .TRUE.
   LASPH = .TRUE.
   LDAU = .TRUE.
   LVTOT = .FALSE.
   LREAL = .FALSE.
   LDAUL = 2 -1 -1
   LDAUU = 7.000 0.000 0.000
   LDAUJ = 0.000 0.000 0.000
   MAGMOM = 1*4.4900 1*-0.1990 2*-0.1720

 POTCAR:   PAW_PBE Mn_pv 07Sep2000                
 POTCAR:   PAW_PBE Au 06Sep2000                   
 POTCAR:   PAW_PBE O 08Apr2002                    
 POTCAR:   PAW_PBE Mn_pv 07Sep2000                
   VRHFIN =Mn: 3p4s3d                                                                               
   LEXCH  = PE                                                                                      
   EATOM  =  2024.8347 eV,  148.8212 Ry                                                             
                                                                                                    
   TITEL  = PAW_PBE Mn_pv 07Sep2000                                                                 
   LULTRA =        F    use ultrasoft PP ?                                                          
   IUNSCR =        1    unscreen: 0-lin 1-nonlin 2-no                                               
   RPACOR =    2.080    partial core radius                                                         
   POMASS =   54.938; ZVAL   =   13.000    mass and valenz                                          
   RCORE  =    2.300    outmost cutoff radius                                                       
   RWIGS  =    2.500; RWIGS  =    1.323    wigner-seitz radius (au A)                               
   ENMAX  =  269.865; ENMIN  =  202.399 eV                                                          
   RCLOC  =    1.725    cutoff for local pot                                                        
   LCOR   =        T    correct aug charges                                                         
   LPAW   =        T    paw PP                                                                      
   EAUG   =  569.085                                                                                
   DEXC   =    -.003                                                                                
   RMAX   =    2.807    core radius for proj-oper                                                   
   RAUG   =    1.300    factor for augmentation sphere                                              
   RDEP   =    2.338    radius for radial grids                                                     
   QCUT   =   -4.454; QGAM   =    8.907    optimization parameters                                  
                                                                                                    
   Description                                                                                      
     l     E      TYP  RCUT    TYP  RCUT                                                            
     1   .000     23  2.000                                                                         
     1  -.100     23  2.000                                                                         
     2   .000     23  2.300                                                                         
     2   .000     23  2.300                                                                         
     0   .000     23  2.300                                                                         
     0   .000     23  2.300                                                                         
     3   .000      7   .000                                                                         
  local pseudopotential read in
  partial core-charges read in
  atomic valenz-charges read in
  non local Contribution for L=            1  read in
    real space projection operators read in
  non local Contribution for L=            1  read in
    real space projection operators read in
  non local Contribution for L=            2  read in
    real space projection operators read in
  non local Contribution for L=            2  read in
    real space projection operators read in
  non local Contribution for L=            0  read in
    real space projection operators read in
  non local Contribution for L=            0  read in
    real space projection operators read in
    PAW grid and wavefunctions read in
 
   number of l-projection  operators is LMAX  =            6
   number of lm-projection operators is LMMAX =           18
 
 POTCAR:   PAW_PBE Au 06Sep2000                   
   VRHFIN =Au: s1d10                                                                                
   LEXCH  = PE                                                                                      
   EATOM  =   926.0567 eV,   68.0632 Ry                                                             
                                                                                                    
   TITEL  = PAW_PBE Au 06Sep2000                                                                    
   LULTRA =        F    use ultrasoft PP ?                                                          
   IUNSCR =        1    unscreen: 0-lin 1-nonlin 2-no                                               
   RPACOR =    2.330    partial core radius                                                         
   POMASS =  196.966; ZVAL   =   11.000    mass and valenz                                          
   RCORE  =    2.500    outmost cutoff radius                                                       
   RWIGS  =    2.840; RWIGS  =    1.503    wigner-seitz radius (au A)                               
   ENMAX  =  229.948; ENMIN  =  172.461 eV                                                          
   RCLOC  =    1.964    cutoff for local pot                                                        
   LCOR   =        T    correct aug charges                                                         
   LPAW   =        T    paw PP                                                                      
   EAUG   =  356.670                                                                                
   DEXC   =    -.025                                                                                
   RMAX   =    3.041    core radius for proj-oper                                                   
   RAUG   =    1.300    factor for augmentation sphere                                              
   RDEP   =    2.598    radius for radial grids                                                     
   QCUT   =   -4.111; QGAM   =    8.222    optimization parameters                                  
                                                                                                    
   Description                                                                                      
     l     E      TYP  RCUT    TYP  RCUT                                                            
     2   .000     23  2.500                                                                         
     2   .000     23  2.500                                                                         
     0   .000     23  2.500                                                                         
     0   .000     23  2.500                                                                         
     1  -.200     23  2.500                                                                         
     1   .000     23  2.500                                                                         
     3   .000      7   .000                                                                         
  local pseudopotential read in
  partial core-charges read in
  atomic valenz-charges read in
  non local Contribution for L=            2  read in
    real space projection operators read in
  non local Contribution for L=            2  read in
    real space projection operators read in
  non local Contribution for L=            0  read in
    real space projection operators read in
  non local Contribution for L=            0  read in
    real space projection operators read in
  non local Contribution for L=            1  read in
    real space projection operators read in
  non local Contribution for L=            1  read in
    real space projection operators read in
    PAW grid and wavefunctions read in
 
   number of l-projection  operators is LMAX  =            6
   number of lm-projection operators is LMMAX =           18
 
 POTCAR:   PAW_PBE O 08Apr2002                    
   VRHFIN =O: s2p4                                                                                  
   LEXCH  = PE                                                                                      
   EATOM  =   432.3788 eV,   31.7789 Ry                                                             
                                                                                                    
   TITEL  = PAW_PBE O 08Apr2002                                                                     
   LULTRA =        F    use ultrasoft PP ?                                                          
   IUNSCR =        0    unscreen: 0-lin 1-nonlin 2-no                                               
   RPACOR =     .000    partial core radius                                                         
   POMASS =   16.000; ZVAL   =    6.000    mass and valenz                                          
   RCORE  =    1.520    outmost cutoff radius                                                       
   RWIGS  =    1.550; RWIGS  =     .820    wigner-seitz radius (au A)                               
   ENMAX  =  400.000; ENMIN  =  300.000 eV                                                          
   ICORE  =        2    local potential                                                             
   LCOR   =        T    correct aug charges                                                         
   LPAW   =        T    paw PP                                                                      
   EAUG   =  605.392                                                                                
   DEXC   =     .000                                                                                
   RMAX   =    2.264    core radius for proj-oper                                                   
   RAUG   =    1.300    factor for augmentation sphere                                              
   RDEP   =    1.550    radius for radial grids                                                     
   QCUT   =   -5.520; QGAM   =   11.041    optimization parameters                                  
                                                                                                    
   Description                                                                                      
     l     E      TYP  RCUT    TYP  RCUT                                                            
     0   .000     23  1.200                                                                         
     0  -.700     23  1.200                                                                         
     1   .000     23  1.520                                                                         
     1   .600     23  1.520                                                                         
     2   .000      7  1.500                                                                         
  local pseudopotential read in
  atomic valenz-charges read in
  non local Contribution for L=            0  read in
    real space projection operators read in
  non local Contribution for L=            0  read in
    real space projection operators read in
  non local Contribution for L=            1  read in
    real space projection operators read in
  non local Contribution for L=            1  read in
    real space projection operators read in
    PAW grid and wavefunctions read in
 
   number of l-projection  operators is LMAX  =            4
   number of lm-projection operators is LMMAX =            8
 
 PAW_PBE Mn_pv 07Sep2000                :
 energy of atom  1       EATOM=-2024.8347
 kinetic energy error for atom=    0.0047 (will be added to EATOM!!)
 PAW_PBE Au 06Sep2000                   :
 energy of atom  2       EATOM= -926.0567
 kinetic energy error for atom=    0.0013 (will be added to EATOM!!)
 PAW_PBE O 08Apr2002                    :
 energy of atom  3       EATOM= -432.3788
 kinetic energy error for atom=    0.0168 (will be added to EATOM!!)
 
 
 POSCAR: Mn Au  O
  positions in cartesian coordinates
  No initial velocities read in
 exchange correlation table for  LEXCH =        8
   RHO(1)=    0.500       N(1)  =     2000
   RHO(2)=  100.500       N(2)  =     4000
 


--------------------------------------------------------------------------------------------------------


 ion  position               nearest neighbor table
   1  0.500  0.500  0.500-   3 2.09   3 2.09   4 2.09   4 2.09   3 2.19   4 2.19
   2  0.000  0.000  0.000-   3 2.03   4 2.03
   3  0.894  0.894  0.331-   2 2.03   1 2.09   1 2.09   1 2.19
   4  0.106  0.106  0.669-   2 2.03   1 2.09   1 2.09   1 2.19
 

IMPORTANT INFORMATION: All symmetrisations will be switched off!
NOSYMM: (Re-)initialisation of all symmetry stuff for point group C_1.


----------------------------------------------------------------------------------------

                                     Primitive cell                                     

  volume of cell :      54.5969

  direct lattice vectors                    reciprocal lattice vectors
     1.575809311  2.819017058  0.058660320     0.317297275  0.178333744 -0.046468673
    -1.575809311  2.819017058  0.058660320    -0.317297275  0.178333744 -0.046468673
     0.000000000  1.609996379  6.178714863     0.000000000 -0.003386178  0.162728295

  length of vectors
     3.230088728  3.230088728  6.385029812     0.366932995  0.366932995  0.162763522

  position of ions in fractional coordinates (direct lattice)
     0.500001208  0.500001208  0.499998723
     0.000000000  0.000000000  0.000000000
     0.894266246  0.894266246  0.330582355
     0.105733921  0.105733921  0.669416751

  ion indices of the primitive-cell ions
   primitive index   ion index
                 1           1
                 2           2
                 3           3
                 4           4

----------------------------------------------------------------------------------------

 
 
 KPOINTS: KPOINTS created by Atomic Simulation Env

Automatic generation of k-mesh.
 Grid dimensions read from file:
 generate k-points for:   16   16    8

 Generating k-lattice:

  Cartesian coordinates                     Fractional coordinates (reciprocal lattice)
     0.019831080  0.011145859 -0.002904292     0.062500000  0.000000000  0.000000000
    -0.019831080  0.011145859 -0.002904292    -0.000000000  0.062500000  0.000000000
     0.000000000 -0.000423272  0.020341037    -0.000000000 -0.000000000  0.125000000

  Length of vectors
     0.022933312  0.022933312  0.020345440

  Shift w.r.t. Gamma in fractional coordinates (k-lattice)
     0.000000000  0.000000000  0.000000000

 
 Subroutine IBZKPT returns following result:
 ===========================================
 
 Found   1028 irreducible k-points:
 
 Following reciprocal coordinates:
            Coordinates               Weight
  0.000000  0.000000  0.000000      1.000000
  0.062500  0.000000  0.000000      2.000000
  0.000000 -0.062500  0.000000      2.000000
  0.125000  0.000000  0.000000      2.000000
  0.000000 -0.125000  0.000000      2.000000
  0.187500  0.000000  0.000000      2.000000
  0.000000 -0.187500  0.000000      2.000000
  0.250000  0.000000  0.000000      2.000000
  0.000000 -0.250000  0.000000      2.000000
  0.312500  0.000000  0.000000      2.000000
  0.000000 -0.312500  0.000000      2.000000
  0.375000  0.000000  0.000000      2.000000
  0.000000 -0.375000  0.000000      2.000000
  0.437500  0.000000  0.000000      2.000000
  0.000000 -0.437500  0.000000      2.000000
  0.500000  0.000000  0.000000      1.000000
  0.000000  0.500000  0.000000      1.000000
  0.062500  0.062500  0.000000      2.000000
  0.125000  0.062500  0.000000      2.000000
 -0.062500 -0.125000  0.000000      2.000000
  0.187500  0.062500  0.000000      2.000000
 -0.062500 -0.187500  0.000000      2.000000
  0.250000  0.062500  0.000000      2.000000
 -0.062500 -0.250000  0.000000      2.000000
  0.312500  0.062500  0.000000      2.000000
 -0.062500 -0.312500  0.000000      2.000000
  0.375000  0.062500  0.000000      2.000000
 -0.062500 -0.375000  0.000000      2.000000
  0.437500  0.062500  0.000000      2.000000
 -0.062500 -0.437500  0.000000      2.000000
  0.500000  0.062500  0.000000      2.000000
 -0.062500  0.500000  0.000000      2.000000
 -0.437500  0.062500  0.000000      2.000000
 -0.062500  0.437500  0.000000      2.000000
 -0.375000  0.062500  0.000000      2.000000
 -0.062500  0.375000  0.000000      2.000000
 -0.312500  0.062500  0.000000      2.000000
 -0.062500  0.312500  0.000000      2.000000
 -0.250000  0.062500  0.000000      2.000000
 -0.062500  0.250000  0.000000      2.000000
 -0.187500  0.062500  0.000000      2.000000
 -0.062500  0.187500  0.000000      2.000000
 -0.125000  0.062500  0.000000      2.000000
 -0.062500  0.125000  0.000000      2.000000
 -0.062500  0.062500  0.000000      2.000000
  0.125000  0.125000  0.000000      2.000000
  0.187500  0.125000  0.000000      2.000000
 -0.125000 -0.187500  0.000000      2.000000
  0.250000  0.125000  0.000000      2.000000
 -0.125000 -0.250000  0.000000      2.000000
  0.312500  0.125000  0.000000      2.000000
 -0.125000 -0.312500  0.000000      2.000000
  0.375000  0.125000  0.000000      2.000000
 -0.125000 -0.375000  0.000000      2.000000
  0.437500  0.125000  0.000000      2.000000
 -0.125000 -0.437500  0.000000      2.000000
  0.500000  0.125000  0.000000      2.000000
 -0.125000  0.500000  0.000000      2.000000
 -0.437500  0.125000  0.000000      2.000000
 -0.125000  0.437500  0.000000      2.000000
 -0.375000  0.125000  0.000000      2.000000
 -0.125000  0.375000  0.000000      2.000000
 -0.312500  0.125000  0.000000      2.000000
 -0.125000  0.312500  0.000000      2.000000
 -0.250000  0.125000  0.000000      2.000000
 -0.125000  0.250000  0.000000      2.000000
 -0.187500  0.125000  0.000000      2.000000
 -0.125000  0.187500  0.000000      2.000000
 -0.125000  0.125000  0.000000      2.000000
  0.187500  0.187500  0.000000      2.000000
  0.250000  0.187500  0.000000      2.000000
 -0.187500 -0.250000  0.000000      2.000000
  0.312500  0.187500  0.000000      2.000000
 -0.187500 -0.312500  0.000000      2.000000
  0.375000  0.187500  0.000000      2.000000
 -0.187500 -0.375000  0.000000      2.000000
  0.437500  0.187500  0.000000      2.000000
 -0.187500 -0.437500  0.000000      2.000000
  0.500000  0.187500  0.000000      2.000000
 -0.187500  0.500000  0.000000      2.000000
 -0.437500  0.187500  0.000000      2.000000
 -0.187500  0.437500  0.000000      2.000000
 -0.375000  0.187500  0.000000      2.000000
 -0.187500  0.375000  0.000000      2.000000
 -0.312500  0.187500  0.000000      2.000000
 -0.187500  0.312500  0.000000      2.000000
 -0.250000  0.187500  0.000000      2.000000
 -0.187500  0.250000  0.000000      2.000000
 -0.187500  0.187500  0.000000      2.000000
  0.250000  0.250000  0.000000      2.000000
  0.312500  0.250000  0.000000      2.000000
 -0.250000 -0.312500  0.000000      2.000000
  0.375000  0.250000  0.000000      2.000000
 -0.250000 -0.375000  0.000000      2.000000
  0.437500  0.250000  0.000000      2.000000
 -0.250000 -0.437500  0.000000      2.000000
  0.500000  0.250000  0.000000      2.000000
 -0.250000  0.500000  0.000000      2.000000
 -0.437500  0.250000  0.000000      2.000000
 -0.250000  0.437500  0.000000      2.000000
 -0.375000  0.250000  0.000000      2.000000
 -0.250000  0.375000  0.000000      2.000000
 -0.312500  0.250000  0.000000      2.000000
 -0.250000  0.312500  0.000000      2.000000
 -0.250000  0.250000  0.000000      2.000000
  0.312500  0.312500  0.000000      2.000000
  0.375000  0.312500  0.000000      2.000000
 -0.312500 -0.375000  0.000000      2.000000
  0.437500  0.312500  0.000000      2.000000
 -0.312500 -0.437500  0.000000      2.000000
  0.500000  0.312500  0.000000      2.000000
 -0.312500  0.500000  0.000000      2.000000
 -0.437500  0.312500  0.000000      2.000000
 -0.312500  0.437500  0.000000      2.000000
 -0.375000  0.312500  0.000000      2.000000
 -0.312500  0.375000  0.000000      2.000000
 -0.312500  0.312500  0.000000      2.000000
  0.375000  0.375000  0.000000      2.000000
  0.437500  0.375000  0.000000      2.000000
 -0.375000 -0.437500  0.000000      2.000000
  0.500000  0.375000  0.000000      2.000000
 -0.375000  0.500000  0.000000      2.000000
 -0.437500  0.375000  0.000000      2.000000
 -0.375000  0.437500  0.000000      2.000000
 -0.375000  0.375000  0.000000      2.000000
  0.437500  0.437500  0.000000      2.000000
  0.500000  0.437500  0.000000      2.000000
 -0.437500  0.500000  0.000000      2.000000
 -0.437500  0.437500  0.000000      2.000000
  0.500000  0.500000  0.000000      1.000000
  0.000000  0.000000  0.125000      2.000000
  0.062500  0.000000  0.125000      2.000000
  0.000000 -0.062500 -0.125000      2.000000
  0.125000  0.000000  0.125000      2.000000
  0.000000 -0.125000 -0.125000      2.000000
  0.187500  0.000000  0.125000      2.000000
  0.000000 -0.187500 -0.125000      2.000000
  0.250000  0.000000  0.125000      2.000000
  0.000000 -0.250000 -0.125000      2.000000
  0.312500  0.000000  0.125000      2.000000
  0.000000 -0.312500 -0.125000      2.000000
  0.375000  0.000000  0.125000      2.000000
  0.000000 -0.375000 -0.125000      2.000000
  0.437500  0.000000  0.125000      2.000000
  0.000000 -0.437500 -0.125000      2.000000
  0.500000  0.000000  0.125000      2.000000
  0.000000  0.500000 -0.125000      2.000000
 -0.437500  0.000000  0.125000      2.000000
  0.000000  0.437500 -0.125000      2.000000
 -0.375000  0.000000  0.125000      2.000000
  0.000000  0.375000 -0.125000      2.000000
 -0.312500  0.000000  0.125000      2.000000
  0.000000  0.312500 -0.125000      2.000000
 -0.250000  0.000000  0.125000      2.000000
  0.000000  0.250000 -0.125000      2.000000
 -0.187500  0.000000  0.125000      2.000000
  0.000000  0.187500 -0.125000      2.000000
 -0.125000  0.000000  0.125000      2.000000
  0.000000  0.125000 -0.125000      2.000000
 -0.062500  0.000000  0.125000      2.000000
  0.000000  0.062500 -0.125000      2.000000
  0.062500  0.062500  0.125000      2.000000
  0.125000  0.062500  0.125000      2.000000
 -0.062500 -0.125000 -0.125000      2.000000
  0.187500  0.062500  0.125000      2.000000
 -0.062500 -0.187500 -0.125000      2.000000
  0.250000  0.062500  0.125000      2.000000
 -0.062500 -0.250000 -0.125000      2.000000
  0.312500  0.062500  0.125000      2.000000
 -0.062500 -0.312500 -0.125000      2.000000
  0.375000  0.062500  0.125000      2.000000
 -0.062500 -0.375000 -0.125000      2.000000
  0.437500  0.062500  0.125000      2.000000
 -0.062500 -0.437500 -0.125000      2.000000
  0.500000  0.062500  0.125000      2.000000
 -0.062500  0.500000 -0.125000      2.000000
 -0.437500  0.062500  0.125000      2.000000
 -0.062500  0.437500 -0.125000      2.000000
 -0.375000  0.062500  0.125000      2.000000
 -0.062500  0.375000 -0.125000      2.000000
 -0.312500  0.062500  0.125000      2.000000
 -0.062500  0.312500 -0.125000      2.000000
 -0.250000  0.062500  0.125000      2.000000
 -0.062500  0.250000 -0.125000      2.000000
 -0.187500  0.062500  0.125000      2.000000
 -0.062500  0.187500 -0.125000      2.000000
 -0.125000  0.062500  0.125000      2.000000
 -0.062500  0.125000 -0.125000      2.000000
 -0.062500  0.062500  0.125000      2.000000
 -0.062500  0.062500 -0.125000      2.000000
  0.125000  0.125000  0.125000      2.000000
  0.187500  0.125000  0.125000      2.000000
 -0.125000 -0.187500 -0.125000      2.000000
  0.250000  0.125000  0.125000      2.000000
 -0.125000 -0.250000 -0.125000      2.000000
  0.312500  0.125000  0.125000      2.000000
 -0.125000 -0.312500 -0.125000      2.000000
  0.375000  0.125000  0.125000      2.000000
 -0.125000 -0.375000 -0.125000      2.000000
  0.437500  0.125000  0.125000      2.000000
 -0.125000 -0.437500 -0.125000      2.000000
  0.500000  0.125000  0.125000      2.000000
 -0.125000  0.500000 -0.125000      2.000000
 -0.437500  0.125000  0.125000      2.000000
 -0.125000  0.437500 -0.125000      2.000000
 -0.375000  0.125000  0.125000      2.000000
 -0.125000  0.375000 -0.125000      2.000000
 -0.312500  0.125000  0.125000      2.000000
 -0.125000  0.312500 -0.125000      2.000000
 -0.250000  0.125000  0.125000      2.000000
 -0.125000  0.250000 -0.125000      2.000000
 -0.187500  0.125000  0.125000      2.000000
 -0.125000  0.187500 -0.125000      2.000000
 -0.125000  0.125000  0.125000      2.000000
 -0.125000  0.125000 -0.125000      2.000000
 -0.062500  0.125000  0.125000      2.000000
 -0.125000  0.062500 -0.125000      2.000000
  0.187500  0.187500  0.125000      2.000000
  0.250000  0.187500  0.125000      2.000000
 -0.187500 -0.250000 -0.125000      2.000000
  0.312500  0.187500  0.125000      2.000000
 -0.187500 -0.312500 -0.125000      2.000000
  0.375000  0.187500  0.125000      2.000000
 -0.187500 -0.375000 -0.125000      2.000000
  0.437500  0.187500  0.125000      2.000000
 -0.187500 -0.437500 -0.125000      2.000000
  0.500000  0.187500  0.125000      2.000000
 -0.187500  0.500000 -0.125000      2.000000
 -0.437500  0.187500  0.125000      2.000000
 -0.187500  0.437500 -0.125000      2.000000
 -0.375000  0.187500  0.125000      2.000000
 -0.187500  0.375000 -0.125000      2.000000
 -0.312500  0.187500  0.125000      2.000000
 -0.187500  0.312500 -0.125000      2.000000
 -0.250000  0.187500  0.125000      2.000000
 -0.187500  0.250000 -0.125000      2.000000
 -0.187500  0.187500  0.125000      2.000000
 -0.187500  0.187500 -0.125000      2.000000
 -0.125000  0.187500  0.125000      2.000000
 -0.187500  0.125000 -0.125000      2.000000
 -0.062500  0.187500  0.125000      2.000000
 -0.187500  0.062500 -0.125000      2.000000
  0.250000  0.250000  0.125000      2.000000
  0.312500  0.250000  0.125000      2.000000
 -0.250000 -0.312500 -0.125000      2.000000
  0.375000  0.250000  0.125000      2.000000
 -0.250000 -0.375000 -0.125000      2.000000
  0.437500  0.250000  0.125000      2.000000
 -0.250000 -0.437500 -0.125000      2.000000
  0.500000  0.250000  0.125000      2.000000
 -0.250000  0.500000 -0.125000      2.000000
 -0.437500  0.250000  0.125000      2.000000
 -0.250000  0.437500 -0.125000      2.000000
 -0.375000  0.250000  0.125000      2.000000
 -0.250000  0.375000 -0.125000      2.000000
 -0.312500  0.250000  0.125000      2.000000
 -0.250000  0.312500 -0.125000      2.000000
 -0.250000  0.250000  0.125000      2.000000
 -0.250000  0.250000 -0.125000      2.000000
 -0.187500  0.250000  0.125000      2.000000
 -0.250000  0.187500 -0.125000      2.000000
 -0.125000  0.250000  0.125000      2.000000
 -0.250000  0.125000 -0.125000      2.000000
 -0.062500  0.250000  0.125000      2.000000
 -0.250000  0.062500 -0.125000      2.000000
  0.312500  0.312500  0.125000      2.000000
  0.375000  0.312500  0.125000      2.000000
 -0.312500 -0.375000 -0.125000      2.000000
  0.437500  0.312500  0.125000      2.000000
 -0.312500 -0.437500 -0.125000      2.000000
  0.500000  0.312500  0.125000      2.000000
 -0.312500  0.500000 -0.125000      2.000000
 -0.437500  0.312500  0.125000      2.000000
 -0.312500  0.437500 -0.125000      2.000000
 -0.375000  0.312500  0.125000      2.000000
 -0.312500  0.375000 -0.125000      2.000000
 -0.312500  0.312500  0.125000      2.000000
 -0.312500  0.312500 -0.125000      2.000000
 -0.250000  0.312500  0.125000      2.000000
 -0.312500  0.250000 -0.125000      2.000000
 -0.187500  0.312500  0.125000      2.000000
 -0.312500  0.187500 -0.125000      2.000000
 -0.125000  0.312500  0.125000      2.000000
 -0.312500  0.125000 -0.125000      2.000000
 -0.062500  0.312500  0.125000      2.000000
 -0.312500  0.062500 -0.125000      2.000000
  0.375000  0.375000  0.125000      2.000000
  0.437500  0.375000  0.125000      2.000000
 -0.375000 -0.437500 -0.125000      2.000000
  0.500000  0.375000  0.125000      2.000000
 -0.375000  0.500000 -0.125000      2.000000
 -0.437500  0.375000  0.125000      2.000000
 -0.375000  0.437500 -0.125000      2.000000
 -0.375000  0.375000  0.125000      2.000000
 -0.375000  0.375000 -0.125000      2.000000
 -0.312500  0.375000  0.125000      2.000000
 -0.375000  0.312500 -0.125000      2.000000
 -0.250000  0.375000  0.125000      2.000000
 -0.375000  0.250000 -0.125000      2.000000
 -0.187500  0.375000  0.125000      2.000000
 -0.375000  0.187500 -0.125000      2.000000
 -0.125000  0.375000  0.125000      2.000000
 -0.375000  0.125000 -0.125000      2.000000
 -0.062500  0.375000  0.125000      2.000000
 -0.375000  0.062500 -0.125000      2.000000
  0.437500  0.437500  0.125000      2.000000
  0.500000  0.437500  0.125000      2.000000
 -0.437500  0.500000 -0.125000      2.000000
 -0.437500  0.437500  0.125000      2.000000
 -0.437500  0.437500 -0.125000      2.000000
 -0.375000  0.437500  0.125000      2.000000
 -0.437500  0.375000 -0.125000      2.000000
 -0.312500  0.437500  0.125000      2.000000
 -0.437500  0.312500 -0.125000      2.000000
 -0.250000  0.437500  0.125000      2.000000
 -0.437500  0.250000 -0.125000      2.000000
 -0.187500  0.437500  0.125000      2.000000
 -0.437500  0.187500 -0.125000      2.000000
 -0.125000  0.437500  0.125000      2.000000
 -0.437500  0.125000 -0.125000      2.000000
 -0.062500  0.437500  0.125000      2.000000
 -0.437500  0.062500 -0.125000      2.000000
  0.500000  0.500000  0.125000      2.000000
 -0.437500  0.500000  0.125000      2.000000
  0.500000  0.437500 -0.125000      2.000000
 -0.375000  0.500000  0.125000      2.000000
  0.500000  0.375000 -0.125000      2.000000
 -0.312500  0.500000  0.125000      2.000000
  0.500000  0.312500 -0.125000      2.000000
 -0.250000  0.500000  0.125000      2.000000
  0.500000  0.250000 -0.125000      2.000000
 -0.187500  0.500000  0.125000      2.000000
  0.500000  0.187500 -0.125000      2.000000
 -0.125000  0.500000  0.125000      2.000000
  0.500000  0.125000 -0.125000      2.000000
 -0.062500  0.500000  0.125000      2.000000
  0.500000  0.062500 -0.125000      2.000000
 -0.437500 -0.437500  0.125000      2.000000
 -0.375000 -0.437500  0.125000      2.000000
  0.437500  0.375000 -0.125000      2.000000
 -0.312500 -0.437500  0.125000      2.000000
  0.437500  0.312500 -0.125000      2.000000
 -0.250000 -0.437500  0.125000      2.000000
  0.437500  0.250000 -0.125000      2.000000
 -0.187500 -0.437500  0.125000      2.000000
  0.437500  0.187500 -0.125000      2.000000
 -0.125000 -0.437500  0.125000      2.000000
  0.437500  0.125000 -0.125000      2.000000
 -0.062500 -0.437500  0.125000      2.000000
  0.437500  0.062500 -0.125000      2.000000
 -0.375000 -0.375000  0.125000      2.000000
 -0.312500 -0.375000  0.125000      2.000000
  0.375000  0.312500 -0.125000      2.000000
 -0.250000 -0.375000  0.125000      2.000000
  0.375000  0.250000 -0.125000      2.000000
 -0.187500 -0.375000  0.125000      2.000000
  0.375000  0.187500 -0.125000      2.000000
 -0.125000 -0.375000  0.125000      2.000000
  0.375000  0.125000 -0.125000      2.000000
 -0.062500 -0.375000  0.125000      2.000000
  0.375000  0.062500 -0.125000      2.000000
 -0.312500 -0.312500  0.125000      2.000000
 -0.250000 -0.312500  0.125000      2.000000
  0.312500  0.250000 -0.125000      2.000000
 -0.187500 -0.312500  0.125000      2.000000
  0.312500  0.187500 -0.125000      2.000000
 -0.125000 -0.312500  0.125000      2.000000
  0.312500  0.125000 -0.125000      2.000000
 -0.062500 -0.312500  0.125000      2.000000
  0.312500  0.062500 -0.125000      2.000000
 -0.250000 -0.250000  0.125000      2.000000
 -0.187500 -0.250000  0.125000      2.000000
  0.250000  0.187500 -0.125000      2.000000
 -0.125000 -0.250000  0.125000      2.000000
  0.250000  0.125000 -0.125000      2.000000
 -0.062500 -0.250000  0.125000      2.000000
  0.250000  0.062500 -0.125000      2.000000
 -0.187500 -0.187500  0.125000      2.000000
 -0.125000 -0.187500  0.125000      2.000000
  0.187500  0.125000 -0.125000      2.000000
 -0.062500 -0.187500  0.125000      2.000000
  0.187500  0.062500 -0.125000      2.000000
 -0.125000 -0.125000  0.125000      2.000000
 -0.062500 -0.125000  0.125000      2.000000
  0.125000  0.062500 -0.125000      2.000000
 -0.062500 -0.062500  0.125000      2.000000
  0.000000  0.000000  0.250000      2.000000
  0.062500  0.000000  0.250000      2.000000
  0.000000 -0.062500 -0.250000      2.000000
  0.125000  0.000000  0.250000      2.000000
  0.000000 -0.125000 -0.250000      2.000000
  0.187500  0.000000  0.250000      2.000000
  0.000000 -0.187500 -0.250000      2.000000
  0.250000  0.000000  0.250000      2.000000
  0.000000 -0.250000 -0.250000      2.000000
  0.312500  0.000000  0.250000      2.000000
  0.000000 -0.312500 -0.250000      2.000000
  0.375000  0.000000  0.250000      2.000000
  0.000000 -0.375000 -0.250000      2.000000
  0.437500  0.000000  0.250000      2.000000
  0.000000 -0.437500 -0.250000      2.000000
  0.500000  0.000000  0.250000      2.000000
  0.000000  0.500000 -0.250000      2.000000
 -0.437500  0.000000  0.250000      2.000000
  0.000000  0.437500 -0.250000      2.000000
 -0.375000  0.000000  0.250000      2.000000
  0.000000  0.375000 -0.250000      2.000000
 -0.312500  0.000000  0.250000      2.000000
  0.000000  0.312500 -0.250000      2.000000
 -0.250000  0.000000  0.250000      2.000000
  0.000000  0.250000 -0.250000      2.000000
 -0.187500  0.000000  0.250000      2.000000
  0.000000  0.187500 -0.250000      2.000000
 -0.125000  0.000000  0.250000      2.000000
  0.000000  0.125000 -0.250000      2.000000
 -0.062500  0.000000  0.250000      2.000000
  0.000000  0.062500 -0.250000      2.000000
  0.062500  0.062500  0.250000      2.000000
  0.125000  0.062500  0.250000      2.000000
 -0.062500 -0.125000 -0.250000      2.000000
  0.187500  0.062500  0.250000      2.000000
 -0.062500 -0.187500 -0.250000      2.000000
  0.250000  0.062500  0.250000      2.000000
 -0.062500 -0.250000 -0.250000      2.000000
  0.312500  0.062500  0.250000      2.000000
 -0.062500 -0.312500 -0.250000      2.000000
  0.375000  0.062500  0.250000      2.000000
 -0.062500 -0.375000 -0.250000      2.000000
  0.437500  0.062500  0.250000      2.000000
 -0.062500 -0.437500 -0.250000      2.000000
  0.500000  0.062500  0.250000      2.000000
 -0.062500  0.500000 -0.250000      2.000000
 -0.437500  0.062500  0.250000      2.000000
 -0.062500  0.437500 -0.250000      2.000000
 -0.375000  0.062500  0.250000      2.000000
 -0.062500  0.375000 -0.250000      2.000000
 -0.312500  0.062500  0.250000      2.000000
 -0.062500  0.312500 -0.250000      2.000000
 -0.250000  0.062500  0.250000      2.000000
 -0.062500  0.250000 -0.250000      2.000000
 -0.187500  0.062500  0.250000      2.000000
 -0.062500  0.187500 -0.250000      2.000000
 -0.125000  0.062500  0.250000      2.000000
 -0.062500  0.125000 -0.250000      2.000000
 -0.062500  0.062500  0.250000      2.000000
 -0.062500  0.062500 -0.250000      2.000000
  0.125000  0.125000  0.250000      2.000000
  0.187500  0.125000  0.250000      2.000000
 -0.125000 -0.187500 -0.250000      2.000000
  0.250000  0.125000  0.250000      2.000000
 -0.125000 -0.250000 -0.250000      2.000000
  0.312500  0.125000  0.250000      2.000000
 -0.125000 -0.312500 -0.250000      2.000000
  0.375000  0.125000  0.250000      2.000000
 -0.125000 -0.375000 -0.250000      2.000000
  0.437500  0.125000  0.250000      2.000000
 -0.125000 -0.437500 -0.250000      2.000000
  0.500000  0.125000  0.250000      2.000000
 -0.125000  0.500000 -0.250000      2.000000
 -0.437500  0.125000  0.250000      2.000000
 -0.125000  0.437500 -0.250000      2.000000
 -0.375000  0.125000  0.250000      2.000000
 -0.125000  0.375000 -0.250000      2.000000
 -0.312500  0.125000  0.250000      2.000000
 -0.125000  0.312500 -0.250000      2.000000
 -0.250000  0.125000  0.250000      2.000000
 -0.125000  0.250000 -0.250000      2.000000
 -0.187500  0.125000  0.250000      2.000000
 -0.125000  0.187500 -0.250000      2.000000
 -0.125000  0.125000  0.250000      2.000000
 -0.125000  0.125000 -0.250000      2.000000
 -0.062500  0.125000  0.250000      2.000000
 -0.125000  0.062500 -0.250000      2.000000
  0.187500  0.187500  0.250000      2.000000
  0.250000  0.187500  0.250000      2.000000
 -0.187500 -0.250000 -0.250000      2.000000
  0.312500  0.187500  0.250000      2.000000
 -0.187500 -0.312500 -0.250000      2.000000
  0.375000  0.187500  0.250000      2.000000
 -0.187500 -0.375000 -0.250000      2.000000
  0.437500  0.187500  0.250000      2.000000
 -0.187500 -0.437500 -0.250000      2.000000
  0.500000  0.187500  0.250000      2.000000
 -0.187500  0.500000 -0.250000      2.000000
 -0.437500  0.187500  0.250000      2.000000
 -0.187500  0.437500 -0.250000      2.000000
 -0.375000  0.187500  0.250000      2.000000
 -0.187500  0.375000 -0.250000      2.000000
 -0.312500  0.187500  0.250000      2.000000
 -0.187500  0.312500 -0.250000      2.000000
 -0.250000  0.187500  0.250000      2.000000
 -0.187500  0.250000 -0.250000      2.000000
 -0.187500  0.187500  0.250000      2.000000
 -0.187500  0.187500 -0.250000      2.000000
 -0.125000  0.187500  0.250000      2.000000
 -0.187500  0.125000 -0.250000      2.000000
 -0.062500  0.187500  0.250000      2.000000
 -0.187500  0.062500 -0.250000      2.000000
  0.250000  0.250000  0.250000      2.000000
  0.312500  0.250000  0.250000      2.000000
 -0.250000 -0.312500 -0.250000      2.000000
  0.375000  0.250000  0.250000      2.000000
 -0.250000 -0.375000 -0.250000      2.000000
  0.437500  0.250000  0.250000      2.000000
 -0.250000 -0.437500 -0.250000      2.000000
  0.500000  0.250000  0.250000      2.000000
 -0.250000  0.500000 -0.250000      2.000000
 -0.437500  0.250000  0.250000      2.000000
 -0.250000  0.437500 -0.250000      2.000000
 -0.375000  0.250000  0.250000      2.000000
 -0.250000  0.375000 -0.250000      2.000000
 -0.312500  0.250000  0.250000      2.000000
 -0.250000  0.312500 -0.250000      2.000000
 -0.250000  0.250000  0.250000      2.000000
 -0.250000  0.250000 -0.250000      2.000000
 -0.187500  0.250000  0.250000      2.000000
 -0.250000  0.187500 -0.250000      2.000000
 -0.125000  0.250000  0.250000      2.000000
 -0.250000  0.125000 -0.250000      2.000000
 -0.062500  0.250000  0.250000      2.000000
 -0.250000  0.062500 -0.250000      2.000000
  0.312500  0.312500  0.250000      2.000000
  0.375000  0.312500  0.250000      2.000000
 -0.312500 -0.375000 -0.250000      2.000000
  0.437500  0.312500  0.250000      2.000000
 -0.312500 -0.437500 -0.250000      2.000000
  0.500000  0.312500  0.250000      2.000000
 -0.312500  0.500000 -0.250000      2.000000
 -0.437500  0.312500  0.250000      2.000000
 -0.312500  0.437500 -0.250000      2.000000
 -0.375000  0.312500  0.250000      2.000000
 -0.312500  0.375000 -0.250000      2.000000
 -0.312500  0.312500  0.250000      2.000000
 -0.312500  0.312500 -0.250000      2.000000
 -0.250000  0.312500  0.250000      2.000000
 -0.312500  0.250000 -0.250000      2.000000
 -0.187500  0.312500  0.250000      2.000000
 -0.312500  0.187500 -0.250000      2.000000
 -0.125000  0.312500  0.250000      2.000000
 -0.312500  0.125000 -0.250000      2.000000
 -0.062500  0.312500  0.250000      2.000000
 -0.312500  0.062500 -0.250000      2.000000
  0.375000  0.375000  0.250000      2.000000
  0.437500  0.375000  0.250000      2.000000
 -0.375000 -0.437500 -0.250000      2.000000
  0.500000  0.375000  0.250000      2.000000
 -0.375000  0.500000 -0.250000      2.000000
 -0.437500  0.375000  0.250000      2.000000
 -0.375000  0.437500 -0.250000      2.000000
 -0.375000  0.375000  0.250000      2.000000
 -0.375000  0.375000 -0.250000      2.000000
 -0.312500  0.375000  0.250000      2.000000
 -0.375000  0.312500 -0.250000      2.000000
 -0.250000  0.375000  0.250000      2.000000
 -0.375000  0.250000 -0.250000      2.000000
 -0.187500  0.375000  0.250000      2.000000
 -0.375000  0.187500 -0.250000      2.000000
 -0.125000  0.375000  0.250000      2.000000
 -0.375000  0.125000 -0.250000      2.000000
 -0.062500  0.375000  0.250000      2.000000
 -0.375000  0.062500 -0.250000      2.000000
  0.437500  0.437500  0.250000      2.000000
  0.500000  0.437500  0.250000      2.000000
 -0.437500  0.500000 -0.250000      2.000000
 -0.437500  0.437500  0.250000      2.000000
 -0.437500  0.437500 -0.250000      2.000000
 -0.375000  0.437500  0.250000      2.000000
 -0.437500  0.375000 -0.250000      2.000000
 -0.312500  0.437500  0.250000      2.000000
 -0.437500  0.312500 -0.250000      2.000000
 -0.250000  0.437500  0.250000      2.000000
 -0.437500  0.250000 -0.250000      2.000000
 -0.187500  0.437500  0.250000      2.000000
 -0.437500  0.187500 -0.250000      2.000000
 -0.125000  0.437500  0.250000      2.000000
 -0.437500  0.125000 -0.250000      2.000000
 -0.062500  0.437500  0.250000      2.000000
 -0.437500  0.062500 -0.250000      2.000000
  0.500000  0.500000  0.250000      2.000000
 -0.437500  0.500000  0.250000      2.000000
  0.500000  0.437500 -0.250000      2.000000
 -0.375000  0.500000  0.250000      2.000000
  0.500000  0.375000 -0.250000      2.000000
 -0.312500  0.500000  0.250000      2.000000
  0.500000  0.312500 -0.250000      2.000000
 -0.250000  0.500000  0.250000      2.000000
  0.500000  0.250000 -0.250000      2.000000
 -0.187500  0.500000  0.250000      2.000000
  0.500000  0.187500 -0.250000      2.000000
 -0.125000  0.500000  0.250000      2.000000
  0.500000  0.125000 -0.250000      2.000000
 -0.062500  0.500000  0.250000      2.000000
  0.500000  0.062500 -0.250000      2.000000
 -0.437500 -0.437500  0.250000      2.000000
 -0.375000 -0.437500  0.250000      2.000000
  0.437500  0.375000 -0.250000      2.000000
 -0.312500 -0.437500  0.250000      2.000000
  0.437500  0.312500 -0.250000      2.000000
 -0.250000 -0.437500  0.250000      2.000000
  0.437500  0.250000 -0.250000      2.000000
 -0.187500 -0.437500  0.250000      2.000000
  0.437500  0.187500 -0.250000      2.000000
 -0.125000 -0.437500  0.250000      2.000000
  0.437500  0.125000 -0.250000      2.000000
 -0.062500 -0.437500  0.250000      2.000000
  0.437500  0.062500 -0.250000      2.000000
 -0.375000 -0.375000  0.250000      2.000000
 -0.312500 -0.375000  0.250000      2.000000
  0.375000  0.312500 -0.250000      2.000000
 -0.250000 -0.375000  0.250000      2.000000
  0.375000  0.250000 -0.250000      2.000000
 -0.187500 -0.375000  0.250000      2.000000
  0.375000  0.187500 -0.250000      2.000000
 -0.125000 -0.375000  0.250000      2.000000
  0.375000  0.125000 -0.250000      2.000000
 -0.062500 -0.375000  0.250000      2.000000
  0.375000  0.062500 -0.250000      2.000000
 -0.312500 -0.312500  0.250000      2.000000
 -0.250000 -0.312500  0.250000      2.000000
  0.312500  0.250000 -0.250000      2.000000
 -0.187500 -0.312500  0.250000      2.000000
  0.312500  0.187500 -0.250000      2.000000
 -0.125000 -0.312500  0.250000      2.000000
  0.312500  0.125000 -0.250000      2.000000
 -0.062500 -0.312500  0.250000      2.000000
  0.312500  0.062500 -0.250000      2.000000
 -0.250000 -0.250000  0.250000      2.000000
 -0.187500 -0.250000  0.250000      2.000000
  0.250000  0.187500 -0.250000      2.000000
 -0.125000 -0.250000  0.250000      2.000000
  0.250000  0.125000 -0.250000      2.000000
 -0.062500 -0.250000  0.250000      2.000000
  0.250000  0.062500 -0.250000      2.000000
 -0.187500 -0.187500  0.250000      2.000000
 -0.125000 -0.187500  0.250000      2.000000
  0.187500  0.125000 -0.250000      2.000000
 -0.062500 -0.187500  0.250000      2.000000
  0.187500  0.062500 -0.250000      2.000000
 -0.125000 -0.125000  0.250000      2.000000
 -0.062500 -0.125000  0.250000      2.000000
  0.125000  0.062500 -0.250000      2.000000
 -0.062500 -0.062500  0.250000      2.000000
  0.000000  0.000000  0.375000      2.000000
  0.062500  0.000000  0.375000      2.000000
  0.000000 -0.062500 -0.375000      2.000000
  0.125000  0.000000  0.375000      2.000000
  0.000000 -0.125000 -0.375000      2.000000
  0.187500  0.000000  0.375000      2.000000
  0.000000 -0.187500 -0.375000      2.000000
  0.250000  0.000000  0.375000      2.000000
  0.000000 -0.250000 -0.375000      2.000000
  0.312500  0.000000  0.375000      2.000000
  0.000000 -0.312500 -0.375000      2.000000
  0.375000  0.000000  0.375000      2.000000
  0.000000 -0.375000 -0.375000      2.000000
  0.437500  0.000000  0.375000      2.000000
  0.000000 -0.437500 -0.375000      2.000000
  0.500000  0.000000  0.375000      2.000000
  0.000000  0.500000 -0.375000      2.000000
 -0.437500  0.000000  0.375000      2.000000
  0.000000  0.437500 -0.375000      2.000000
 -0.375000  0.000000  0.375000      2.000000
  0.000000  0.375000 -0.375000      2.000000
 -0.312500  0.000000  0.375000      2.000000
  0.000000  0.312500 -0.375000      2.000000
 -0.250000  0.000000  0.375000      2.000000
  0.000000  0.250000 -0.375000      2.000000
 -0.187500  0.000000  0.375000      2.000000
  0.000000  0.187500 -0.375000      2.000000
 -0.125000  0.000000  0.375000      2.000000
  0.000000  0.125000 -0.375000      2.000000
 -0.062500  0.000000  0.375000      2.000000
  0.000000  0.062500 -0.375000      2.000000
  0.062500  0.062500  0.375000      2.000000
  0.125000  0.062500  0.375000      2.000000
 -0.062500 -0.125000 -0.375000      2.000000
  0.187500  0.062500  0.375000      2.000000
 -0.062500 -0.187500 -0.375000      2.000000
  0.250000  0.062500  0.375000      2.000000
 -0.062500 -0.250000 -0.375000      2.000000
  0.312500  0.062500  0.375000      2.000000
 -0.062500 -0.312500 -0.375000      2.000000
  0.375000  0.062500  0.375000      2.000000
 -0.062500 -0.375000 -0.375000      2.000000
  0.437500  0.062500  0.375000      2.000000
 -0.062500 -0.437500 -0.375000      2.000000
  0.500000  0.062500  0.375000      2.000000
 -0.062500  0.500000 -0.375000      2.000000
 -0.437500  0.062500  0.375000      2.000000
 -0.062500  0.437500 -0.375000      2.000000
 -0.375000  0.062500  0.375000      2.000000
 -0.062500  0.375000 -0.375000      2.000000
 -0.312500  0.062500  0.375000      2.000000
 -0.062500  0.312500 -0.375000      2.000000
 -0.250000  0.062500  0.375000      2.000000
 -0.062500  0.250000 -0.375000      2.000000
 -0.187500  0.062500  0.375000      2.000000
 -0.062500  0.187500 -0.375000      2.000000
 -0.125000  0.062500  0.375000      2.000000
 -0.062500  0.125000 -0.375000      2.000000
 -0.062500  0.062500  0.375000      2.000000
 -0.062500  0.062500 -0.375000      2.000000
  0.125000  0.125000  0.375000      2.000000
  0.187500  0.125000  0.375000      2.000000
 -0.125000 -0.187500 -0.375000      2.000000
  0.250000  0.125000  0.375000      2.000000
 -0.125000 -0.250000 -0.375000      2.000000
  0.312500  0.125000  0.375000      2.000000
 -0.125000 -0.312500 -0.375000      2.000000
  0.375000  0.125000  0.375000      2.000000
 -0.125000 -0.375000 -0.375000      2.000000
  0.437500  0.125000  0.375000      2.000000
 -0.125000 -0.437500 -0.375000      2.000000
  0.500000  0.125000  0.375000      2.000000
 -0.125000  0.500000 -0.375000      2.000000
 -0.437500  0.125000  0.375000      2.000000
 -0.125000  0.437500 -0.375000      2.000000
 -0.375000  0.125000  0.375000      2.000000
 -0.125000  0.375000 -0.375000      2.000000
 -0.312500  0.125000  0.375000      2.000000
 -0.125000  0.312500 -0.375000      2.000000
 -0.250000  0.125000  0.375000      2.000000
 -0.125000  0.250000 -0.375000      2.000000
 -0.187500  0.125000  0.375000      2.000000
 -0.125000  0.187500 -0.375000      2.000000
 -0.125000  0.125000  0.375000      2.000000
 -0.125000  0.125000 -0.375000      2.000000
 -0.062500  0.125000  0.375000      2.000000
 -0.125000  0.062500 -0.375000      2.000000
  0.187500  0.187500  0.375000      2.000000
  0.250000  0.187500  0.375000      2.000000
 -0.187500 -0.250000 -0.375000      2.000000
  0.312500  0.187500  0.375000      2.000000
 -0.187500 -0.312500 -0.375000      2.000000
  0.375000  0.187500  0.375000      2.000000
 -0.187500 -0.375000 -0.375000      2.000000
  0.437500  0.187500  0.375000      2.000000
 -0.187500 -0.437500 -0.375000      2.000000
  0.500000  0.187500  0.375000      2.000000
 -0.187500  0.500000 -0.375000      2.000000
 -0.437500  0.187500  0.375000      2.000000
 -0.187500  0.437500 -0.375000      2.000000
 -0.375000  0.187500  0.375000      2.000000
 -0.187500  0.375000 -0.375000      2.000000
 -0.312500  0.187500  0.375000      2.000000
 -0.187500  0.312500 -0.375000      2.000000
 -0.250000  0.187500  0.375000      2.000000
 -0.187500  0.250000 -0.375000      2.000000
 -0.187500  0.187500  0.375000      2.000000
 -0.187500  0.187500 -0.375000      2.000000
 -0.125000  0.187500  0.375000      2.000000
 -0.187500  0.125000 -0.375000      2.000000
 -0.062500  0.187500  0.375000      2.000000
 -0.187500  0.062500 -0.375000      2.000000
  0.250000  0.250000  0.375000      2.000000
  0.312500  0.250000  0.375000      2.000000
 -0.250000 -0.312500 -0.375000      2.000000
  0.375000  0.250000  0.375000      2.000000
 -0.250000 -0.375000 -0.375000      2.000000
  0.437500  0.250000  0.375000      2.000000
 -0.250000 -0.437500 -0.375000      2.000000
  0.500000  0.250000  0.375000      2.000000
 -0.250000  0.500000 -0.375000      2.000000
 -0.437500  0.250000  0.375000      2.000000
 -0.250000  0.437500 -0.375000      2.000000
 -0.375000  0.250000  0.375000      2.000000
 -0.250000  0.375000 -0.375000      2.000000
 -0.312500  0.250000  0.375000      2.000000
 -0.250000  0.312500 -0.375000      2.000000
 -0.250000  0.250000  0.375000      2.000000
 -0.250000  0.250000 -0.375000      2.000000
 -0.187500  0.250000  0.375000      2.000000
 -0.250000  0.187500 -0.375000      2.000000
 -0.125000  0.250000  0.375000      2.000000
 -0.250000  0.125000 -0.375000      2.000000
 -0.062500  0.250000  0.375000      2.000000
 -0.250000  0.062500 -0.375000      2.000000
  0.312500  0.312500  0.375000      2.000000
  0.375000  0.312500  0.375000      2.000000
 -0.312500 -0.375000 -0.375000      2.000000
  0.437500  0.312500  0.375000      2.000000
 -0.312500 -0.437500 -0.375000      2.000000
  0.500000  0.312500  0.375000      2.000000
 -0.312500  0.500000 -0.375000      2.000000
 -0.437500  0.312500  0.375000      2.000000
 -0.312500  0.437500 -0.375000      2.000000
 -0.375000  0.312500  0.375000      2.000000
 -0.312500  0.375000 -0.375000      2.000000
 -0.312500  0.312500  0.375000      2.000000
 -0.312500  0.312500 -0.375000      2.000000
 -0.250000  0.312500  0.375000      2.000000
 -0.312500  0.250000 -0.375000      2.000000
 -0.187500  0.312500  0.375000      2.000000
 -0.312500  0.187500 -0.375000      2.000000
 -0.125000  0.312500  0.375000      2.000000
 -0.312500  0.125000 -0.375000      2.000000
 -0.062500  0.312500  0.375000      2.000000
 -0.312500  0.062500 -0.375000      2.000000
  0.375000  0.375000  0.375000      2.000000
  0.437500  0.375000  0.375000      2.000000
 -0.375000 -0.437500 -0.375000      2.000000
  0.500000  0.375000  0.375000      2.000000
 -0.375000  0.500000 -0.375000      2.000000
 -0.437500  0.375000  0.375000      2.000000
 -0.375000  0.437500 -0.375000      2.000000
 -0.375000  0.375000  0.375000      2.000000
 -0.375000  0.375000 -0.375000      2.000000
 -0.312500  0.375000  0.375000      2.000000
 -0.375000  0.312500 -0.375000      2.000000
 -0.250000  0.375000  0.375000      2.000000
 -0.375000  0.250000 -0.375000      2.000000
 -0.187500  0.375000  0.375000      2.000000
 -0.375000  0.187500 -0.375000      2.000000
 -0.125000  0.375000  0.375000      2.000000
 -0.375000  0.125000 -0.375000      2.000000
 -0.062500  0.375000  0.375000      2.000000
 -0.375000  0.062500 -0.375000      2.000000
  0.437500  0.437500  0.375000      2.000000
  0.500000  0.437500  0.375000      2.000000
 -0.437500  0.500000 -0.375000      2.000000
 -0.437500  0.437500  0.375000      2.000000
 -0.437500  0.437500 -0.375000      2.000000
 -0.375000  0.437500  0.375000      2.000000
 -0.437500  0.375000 -0.375000      2.000000
 -0.312500  0.437500  0.375000      2.000000
 -0.437500  0.312500 -0.375000      2.000000
 -0.250000  0.437500  0.375000      2.000000
 -0.437500  0.250000 -0.375000      2.000000
 -0.187500  0.437500  0.375000      2.000000
 -0.437500  0.187500 -0.375000      2.000000
 -0.125000  0.437500  0.375000      2.000000
 -0.437500  0.125000 -0.375000      2.000000
 -0.062500  0.437500  0.375000      2.000000
 -0.437500  0.062500 -0.375000      2.000000
  0.500000  0.500000  0.375000      2.000000
 -0.437500  0.500000  0.375000      2.000000
  0.500000  0.437500 -0.375000      2.000000
 -0.375000  0.500000  0.375000      2.000000
  0.500000  0.375000 -0.375000      2.000000
 -0.312500  0.500000  0.375000      2.000000
  0.500000  0.312500 -0.375000      2.000000
 -0.250000  0.500000  0.375000      2.000000
  0.500000  0.250000 -0.375000      2.000000
 -0.187500  0.500000  0.375000      2.000000
  0.500000  0.187500 -0.375000      2.000000
 -0.125000  0.500000  0.375000      2.000000
  0.500000  0.125000 -0.375000      2.000000
 -0.062500  0.500000  0.375000      2.000000
  0.500000  0.062500 -0.375000      2.000000
 -0.437500 -0.437500  0.375000      2.000000
 -0.375000 -0.437500  0.375000      2.000000
  0.437500  0.375000 -0.375000      2.000000
 -0.312500 -0.437500  0.375000      2.000000
  0.437500  0.312500 -0.375000      2.000000
 -0.250000 -0.437500  0.375000      2.000000
  0.437500  0.250000 -0.375000      2.000000
 -0.187500 -0.437500  0.375000      2.000000
  0.437500  0.187500 -0.375000      2.000000
 -0.125000 -0.437500  0.375000      2.000000
  0.437500  0.125000 -0.375000      2.000000
 -0.062500 -0.437500  0.375000      2.000000
  0.437500  0.062500 -0.375000      2.000000
 -0.375000 -0.375000  0.375000      2.000000
 -0.312500 -0.375000  0.375000      2.000000
  0.375000  0.312500 -0.375000      2.000000
 -0.250000 -0.375000  0.375000      2.000000
  0.375000  0.250000 -0.375000      2.000000
 -0.187500 -0.375000  0.375000      2.000000
  0.375000  0.187500 -0.375000      2.000000
 -0.125000 -0.375000  0.375000      2.000000
  0.375000  0.125000 -0.375000      2.000000
 -0.062500 -0.375000  0.375000      2.000000
  0.375000  0.062500 -0.375000      2.000000
 -0.312500 -0.312500  0.375000      2.000000
 -0.250000 -0.312500  0.375000      2.000000
  0.312500  0.250000 -0.375000      2.000000
 -0.187500 -0.312500  0.375000      2.000000
  0.312500  0.187500 -0.375000      2.000000
 -0.125000 -0.312500  0.375000      2.000000
  0.312500  0.125000 -0.375000      2.000000
 -0.062500 -0.312500  0.375000      2.000000
  0.312500  0.062500 -0.375000      2.000000
 -0.250000 -0.250000  0.375000      2.000000
 -0.187500 -0.250000  0.375000      2.000000
  0.250000  0.187500 -0.375000      2.000000
 -0.125000 -0.250000  0.375000      2.000000
  0.250000  0.125000 -0.375000      2.000000
 -0.062500 -0.250000  0.375000      2.000000
  0.250000  0.062500 -0.375000      2.000000
 -0.187500 -0.187500  0.375000      2.000000
 -0.125000 -0.187500  0.375000      2.000000
  0.187500  0.125000 -0.375000      2.000000
 -0.062500 -0.187500  0.375000      2.000000
  0.187500  0.062500 -0.375000      2.000000
 -0.125000 -0.125000  0.375000      2.000000
 -0.062500 -0.125000  0.375000      2.000000
  0.125000  0.062500 -0.375000      2.000000
 -0.062500 -0.062500  0.375000      2.000000
  0.000000  0.000000  0.500000      1.000000
  0.062500  0.000000  0.500000      2.000000
  0.000000 -0.062500  0.500000      2.000000
  0.125000  0.000000  0.500000      2.000000
  0.000000 -0.125000  0.500000      2.000000
  0.187500  0.000000  0.500000      2.000000
  0.000000 -0.187500  0.500000      2.000000
  0.250000  0.000000  0.500000      2.000000
  0.000000 -0.250000  0.500000      2.000000
  0.312500  0.000000  0.500000      2.000000
  0.000000 -0.312500  0.500000      2.000000
  0.375000  0.000000  0.500000      2.000000
  0.000000 -0.375000  0.500000      2.000000
  0.437500  0.000000  0.500000      2.000000
  0.000000 -0.437500  0.500000      2.000000
  0.500000  0.000000  0.500000      1.000000
  0.000000  0.500000  0.500000      1.000000
  0.062500  0.062500  0.500000      2.000000
  0.125000  0.062500  0.500000      2.000000
 -0.062500 -0.125000  0.500000      2.000000
  0.187500  0.062500  0.500000      2.000000
 -0.062500 -0.187500  0.500000      2.000000
  0.250000  0.062500  0.500000      2.000000
 -0.062500 -0.250000  0.500000      2.000000
  0.312500  0.062500  0.500000      2.000000
 -0.062500 -0.312500  0.500000      2.000000
  0.375000  0.062500  0.500000      2.000000
 -0.062500 -0.375000  0.500000      2.000000
  0.437500  0.062500  0.500000      2.000000
 -0.062500 -0.437500  0.500000      2.000000
  0.500000  0.062500  0.500000      2.000000
 -0.062500  0.500000  0.500000      2.000000
 -0.437500  0.062500  0.500000      2.000000
 -0.062500  0.437500  0.500000      2.000000
 -0.375000  0.062500  0.500000      2.000000
 -0.062500  0.375000  0.500000      2.000000
 -0.312500  0.062500  0.500000      2.000000
 -0.062500  0.312500  0.500000      2.000000
 -0.250000  0.062500  0.500000      2.000000
 -0.062500  0.250000  0.500000      2.000000
 -0.187500  0.062500  0.500000      2.000000
 -0.062500  0.187500  0.500000      2.000000
 -0.125000  0.062500  0.500000      2.000000
 -0.062500  0.125000  0.500000      2.000000
 -0.062500  0.062500  0.500000      2.000000
  0.125000  0.125000  0.500000      2.000000
  0.187500  0.125000  0.500000      2.000000
 -0.125000 -0.187500  0.500000      2.000000
  0.250000  0.125000  0.500000      2.000000
 -0.125000 -0.250000  0.500000      2.000000
  0.312500  0.125000  0.500000      2.000000
 -0.125000 -0.312500  0.500000      2.000000
  0.375000  0.125000  0.500000      2.000000
 -0.125000 -0.375000  0.500000      2.000000
  0.437500  0.125000  0.500000      2.000000
 -0.125000 -0.437500  0.500000      2.000000
  0.500000  0.125000  0.500000      2.000000
 -0.125000  0.500000  0.500000      2.000000
 -0.437500  0.125000  0.500000      2.000000
 -0.125000  0.437500  0.500000      2.000000
 -0.375000  0.125000  0.500000      2.000000
 -0.125000  0.375000  0.500000      2.000000
 -0.312500  0.125000  0.500000      2.000000
 -0.125000  0.312500  0.500000      2.000000
 -0.250000  0.125000  0.500000      2.000000
 -0.125000  0.250000  0.500000      2.000000
 -0.187500  0.125000  0.500000      2.000000
 -0.125000  0.187500  0.500000      2.000000
 -0.125000  0.125000  0.500000      2.000000
  0.187500  0.187500  0.500000      2.000000
  0.250000  0.187500  0.500000      2.000000
 -0.187500 -0.250000  0.500000      2.000000
  0.312500  0.187500  0.500000      2.000000
 -0.187500 -0.312500  0.500000      2.000000
  0.375000  0.187500  0.500000      2.000000
 -0.187500 -0.375000  0.500000      2.000000
  0.437500  0.187500  0.500000      2.000000
 -0.187500 -0.437500  0.500000      2.000000
  0.500000  0.187500  0.500000      2.000000
 -0.187500  0.500000  0.500000      2.000000
 -0.437500  0.187500  0.500000      2.000000
 -0.187500  0.437500  0.500000      2.000000
 -0.375000  0.187500  0.500000      2.000000
 -0.187500  0.375000  0.500000      2.000000
 -0.312500  0.187500  0.500000      2.000000
 -0.187500  0.312500  0.500000      2.000000
 -0.250000  0.187500  0.500000      2.000000
 -0.187500  0.250000  0.500000      2.000000
 -0.187500  0.187500  0.500000      2.000000
  0.250000  0.250000  0.500000      2.000000
  0.312500  0.250000  0.500000      2.000000
 -0.250000 -0.312500  0.500000      2.000000
  0.375000  0.250000  0.500000      2.000000
 -0.250000 -0.375000  0.500000      2.000000
  0.437500  0.250000  0.500000      2.000000
 -0.250000 -0.437500  0.500000      2.000000
  0.500000  0.250000  0.500000      2.000000
 -0.250000  0.500000  0.500000      2.000000
 -0.437500  0.250000  0.500000      2.000000
 -0.250000  0.437500  0.500000      2.000000
 -0.375000  0.250000  0.500000      2.000000
 -0.250000  0.375000  0.500000      2.000000
 -0.312500  0.250000  0.500000      2.000000
 -0.250000  0.312500  0.500000      2.000000
 -0.250000  0.250000  0.500000      2.000000
  0.312500  0.312500  0.500000      2.000000
  0.375000  0.312500  0.500000      2.000000
 -0.312500 -0.375000  0.500000      2.000000
  0.437500  0.312500  0.500000      2.000000
 -0.312500 -0.437500  0.500000      2.000000
  0.500000  0.312500  0.500000      2.000000
 -0.312500  0.500000  0.500000      2.000000
 -0.437500  0.312500  0.500000      2.000000
 -0.312500  0.437500  0.500000      2.000000
 -0.375000  0.312500  0.500000      2.000000
 -0.312500  0.375000  0.500000      2.000000
 -0.312500  0.312500  0.500000      2.000000
  0.375000  0.375000  0.500000      2.000000
  0.437500  0.375000  0.500000      2.000000
 -0.375000 -0.437500  0.500000      2.000000
  0.500000  0.375000  0.500000      2.000000
 -0.375000  0.500000  0.500000      2.000000
 -0.437500  0.375000  0.500000      2.000000
 -0.375000  0.437500  0.500000      2.000000
 -0.375000  0.375000  0.500000      2.000000
  0.437500  0.437500  0.500000      2.000000
  0.500000  0.437500  0.500000      2.000000
 -0.437500  0.500000  0.500000      2.000000
 -0.437500  0.437500  0.500000      2.000000
  0.500000  0.500000  0.500000      1.000000
 
 Following cartesian coordinates:
            Coordinates               Weight
 -0.000000  0.000000  0.000000      1.000000
  0.019831  0.011146 -0.002904      2.000000
  0.019831 -0.011146  0.002904      2.000000
  0.039662  0.022292 -0.005809      2.000000
  0.039662 -0.022292  0.005809      2.000000
  0.059493  0.033438 -0.008713      2.000000
  0.059493 -0.033438  0.008713      2.000000
  0.079324  0.044583 -0.011617      2.000000
  0.079324 -0.044583  0.011617      2.000000
  0.099155  0.055729 -0.014521      2.000000
  0.099155 -0.055729  0.014521      2.000000
  0.118986  0.066875 -0.017426      2.000000
  0.118986 -0.066875  0.017426      2.000000
  0.138818  0.078021 -0.020330      2.000000
  0.138818 -0.078021  0.020330      2.000000
  0.158649  0.089167 -0.023234      1.000000
 -0.158649  0.089167 -0.023234      1.000000
 -0.000000  0.022292 -0.005809      2.000000
  0.019831  0.033438 -0.008713      2.000000
  0.019831 -0.033438  0.008713      2.000000
  0.039662  0.044583 -0.011617      2.000000
  0.039662 -0.044583  0.011617      2.000000
  0.059493  0.055729 -0.014521      2.000000
  0.059493 -0.055729  0.014521      2.000000
  0.079324  0.066875 -0.017426      2.000000
  0.079324 -0.066875  0.017426      2.000000
  0.099155  0.078021 -0.020330      2.000000
  0.099155 -0.078021  0.020330      2.000000
  0.118986  0.089167 -0.023234      2.000000
  0.118986 -0.089167  0.023234      2.000000
  0.138818  0.100313 -0.026139      2.000000
 -0.178480  0.078021 -0.020330      2.000000
 -0.158649 -0.066875  0.017426      2.000000
 -0.158649  0.066875 -0.017426      2.000000
 -0.138818 -0.055729  0.014521      2.000000
 -0.138818  0.055729 -0.014521      2.000000
 -0.118986 -0.044583  0.011617      2.000000
 -0.118986  0.044583 -0.011617      2.000000
 -0.099155 -0.033438  0.008713      2.000000
 -0.099155  0.033438 -0.008713      2.000000
 -0.079324 -0.022292  0.005809      2.000000
 -0.079324  0.022292 -0.005809      2.000000
 -0.059493 -0.011146  0.002904      2.000000
 -0.059493  0.011146 -0.002904      2.000000
 -0.039662  0.000000  0.000000      2.000000
 -0.000000  0.044583 -0.011617      2.000000
  0.019831  0.055729 -0.014521      2.000000
  0.019831 -0.055729  0.014521      2.000000
  0.039662  0.066875 -0.017426      2.000000
  0.039662 -0.066875  0.017426      2.000000
  0.059493  0.078021 -0.020330      2.000000
  0.059493 -0.078021  0.020330      2.000000
  0.079324  0.089167 -0.023234      2.000000
  0.079324 -0.089167  0.023234      2.000000
  0.099155  0.100313 -0.026139      2.000000
  0.099155 -0.100313  0.026139      2.000000
  0.118986  0.111459 -0.029043      2.000000
 -0.198311  0.066875 -0.017426      2.000000
 -0.178480 -0.055729  0.014521      2.000000
 -0.178480  0.055729 -0.014521      2.000000
 -0.158649 -0.044583  0.011617      2.000000
 -0.158649  0.044583 -0.011617      2.000000
 -0.138818 -0.033438  0.008713      2.000000
 -0.138818  0.033438 -0.008713      2.000000
 -0.118986 -0.022292  0.005809      2.000000
 -0.118986  0.022292 -0.005809      2.000000
 -0.099155 -0.011146  0.002904      2.000000
 -0.099155  0.011146 -0.002904      2.000000
 -0.079324  0.000000  0.000000      2.000000
 -0.000000  0.066875 -0.017426      2.000000
  0.019831  0.078021 -0.020330      2.000000
  0.019831 -0.078021  0.020330      2.000000
  0.039662  0.089167 -0.023234      2.000000
  0.039662 -0.089167  0.023234      2.000000
  0.059493  0.100313 -0.026139      2.000000
  0.059493 -0.100313  0.026139      2.000000
  0.079324  0.111459 -0.029043      2.000000
  0.079324 -0.111459  0.029043      2.000000
  0.099155  0.122604 -0.031947      2.000000
 -0.218142  0.055729 -0.014521      2.000000
 -0.198311 -0.044583  0.011617      2.000000
 -0.198311  0.044583 -0.011617      2.000000
 -0.178480 -0.033438  0.008713      2.000000
 -0.178480  0.033438 -0.008713      2.000000
 -0.158649 -0.022292  0.005809      2.000000
 -0.158649  0.022292 -0.005809      2.000000
 -0.138818 -0.011146  0.002904      2.000000
 -0.138818  0.011146 -0.002904      2.000000
 -0.118986  0.000000  0.000000      2.000000
 -0.000000  0.089167 -0.023234      2.000000
  0.019831  0.100313 -0.026139      2.000000
  0.019831 -0.100313  0.026139      2.000000
  0.039662  0.111459 -0.029043      2.000000
  0.039662 -0.111459  0.029043      2.000000
  0.059493  0.122604 -0.031947      2.000000
  0.059493 -0.122604  0.031947      2.000000
  0.079324  0.133750 -0.034852      2.000000
 -0.237973  0.044583 -0.011617      2.000000
 -0.218142 -0.033438  0.008713      2.000000
 -0.218142  0.033438 -0.008713      2.000000
 -0.198311 -0.022292  0.005809      2.000000
 -0.198311  0.022292 -0.005809      2.000000
 -0.178480 -0.011146  0.002904      2.000000
 -0.178480  0.011146 -0.002904      2.000000
 -0.158649  0.000000  0.000000      2.000000
 -0.000000  0.111459 -0.029043      2.000000
  0.019831  0.122604 -0.031947      2.000000
  0.019831 -0.122604  0.031947      2.000000
  0.039662  0.133750 -0.034852      2.000000
  0.039662 -0.133750  0.034852      2.000000
  0.059493  0.144896 -0.037756      2.000000
 -0.257804  0.033438 -0.008713      2.000000
 -0.237973 -0.022292  0.005809      2.000000
 -0.237973  0.022292 -0.005809      2.000000
 -0.218142 -0.011146  0.002904      2.000000
 -0.218142  0.011146 -0.002904      2.000000
 -0.198311  0.000000  0.000000      2.000000
 -0.000000  0.133750 -0.034852      2.000000
  0.019831  0.144896 -0.037756      2.000000
  0.019831 -0.144896  0.037756      2.000000
  0.039662  0.156042 -0.040660      2.000000
 -0.277635  0.022292 -0.005809      2.000000
 -0.257804 -0.011146  0.002904      2.000000
 -0.257804  0.011146 -0.002904      2.000000
 -0.237973  0.000000  0.000000      2.000000
 -0.000000  0.156042 -0.040660      2.000000
  0.019831  0.167188 -0.043564      2.000000
 -0.297466  0.011146 -0.002904      2.000000
 -0.277635  0.000000  0.000000      2.000000
 -0.000000  0.178334 -0.046469      1.000000
 -0.000000 -0.000423  0.020341      2.000000
  0.019831  0.010723  0.017437      2.000000
  0.019831 -0.010723 -0.017437      2.000000
  0.039662  0.021868  0.014532      2.000000
  0.039662 -0.021868 -0.014532      2.000000
  0.059493  0.033014  0.011628      2.000000
  0.059493 -0.033014 -0.011628      2.000000
  0.079324  0.044160  0.008724      2.000000
  0.079324 -0.044160 -0.008724      2.000000
  0.099155  0.055306  0.005820      2.000000
  0.099155 -0.055306 -0.005820      2.000000
  0.118986  0.066452  0.002915      2.000000
  0.118986 -0.066452 -0.002915      2.000000
  0.138818  0.077598  0.000011      2.000000
  0.138818 -0.077598 -0.000011      2.000000
  0.158649  0.088744 -0.002893      2.000000
 -0.158649  0.089590 -0.043575      2.000000
 -0.138818 -0.078444  0.040671      2.000000
 -0.138818  0.078444 -0.040671      2.000000
 -0.118986 -0.067298  0.037767      2.000000
 -0.118986  0.067298 -0.037767      2.000000
 -0.099155 -0.056153  0.034862      2.000000
 -0.099155  0.056153 -0.034862      2.000000
 -0.079324 -0.045007  0.031958      2.000000
 -0.079324  0.045007 -0.031958      2.000000
 -0.059493 -0.033861  0.029054      2.000000
 -0.059493  0.033861 -0.029054      2.000000
 -0.039662 -0.022715  0.026150      2.000000
 -0.039662  0.022715 -0.026150      2.000000
 -0.019831 -0.011569  0.023245      2.000000
 -0.019831  0.011569 -0.023245      2.000000
 -0.000000  0.021868  0.014532      2.000000
  0.019831  0.033014  0.011628      2.000000
  0.019831 -0.033014 -0.011628      2.000000
  0.039662  0.044160  0.008724      2.000000
  0.039662 -0.044160 -0.008724      2.000000
  0.059493  0.055306  0.005820      2.000000
  0.059493 -0.055306 -0.005820      2.000000
  0.079324  0.066452  0.002915      2.000000
  0.079324 -0.066452 -0.002915      2.000000
  0.099155  0.077598  0.000011      2.000000
  0.099155 -0.077598 -0.000011      2.000000
  0.118986  0.088744 -0.002893      2.000000
  0.118986 -0.088744  0.002893      2.000000
  0.138818  0.099889 -0.005798      2.000000
 -0.178480  0.078444 -0.040671      2.000000
 -0.158649 -0.067298  0.037767      2.000000
 -0.158649  0.067298 -0.037767      2.000000
 -0.138818 -0.056153  0.034862      2.000000
 -0.138818  0.056153 -0.034862      2.000000
 -0.118986 -0.045007  0.031958      2.000000
 -0.118986  0.045007 -0.031958      2.000000
 -0.099155 -0.033861  0.029054      2.000000
 -0.099155  0.033861 -0.029054      2.000000
 -0.079324 -0.022715  0.026150      2.000000
 -0.079324  0.022715 -0.026150      2.000000
 -0.059493 -0.011569  0.023245      2.000000
 -0.059493  0.011569 -0.023245      2.000000
 -0.039662 -0.000423  0.020341      2.000000
 -0.039662  0.000423 -0.020341      2.000000
 -0.000000  0.044160  0.008724      2.000000
  0.019831  0.055306  0.005820      2.000000
  0.019831 -0.055306 -0.005820      2.000000
  0.039662  0.066452  0.002915      2.000000
  0.039662 -0.066452 -0.002915      2.000000
  0.059493  0.077598  0.000011      2.000000
  0.059493 -0.077598 -0.000011      2.000000
  0.079324  0.088744 -0.002893      2.000000
  0.079324 -0.088744  0.002893      2.000000
  0.099155  0.099889 -0.005798      2.000000
  0.099155 -0.099889  0.005798      2.000000
  0.118986  0.111035 -0.008702      2.000000
 -0.198311  0.067298 -0.037767      2.000000
 -0.178480 -0.056153  0.034862      2.000000
 -0.178480  0.056153 -0.034862      2.000000
 -0.158649 -0.045007  0.031958      2.000000
 -0.158649  0.045007 -0.031958      2.000000
 -0.138818 -0.033861  0.029054      2.000000
 -0.138818  0.033861 -0.029054      2.000000
 -0.118986 -0.022715  0.026150      2.000000
 -0.118986  0.022715 -0.026150      2.000000
 -0.099155 -0.011569  0.023245      2.000000
 -0.099155  0.011569 -0.023245      2.000000
 -0.079324 -0.000423  0.020341      2.000000
 -0.079324  0.000423 -0.020341      2.000000
 -0.059493  0.010723  0.017437      2.000000
 -0.059493 -0.010723 -0.017437      2.000000
 -0.000000  0.066452  0.002915      2.000000
  0.019831  0.077598  0.000011      2.000000
  0.019831 -0.077598 -0.000011      2.000000
  0.039662  0.088744 -0.002893      2.000000
  0.039662 -0.088744  0.002893      2.000000
  0.059493  0.099889 -0.005798      2.000000
  0.059493 -0.099889  0.005798      2.000000
  0.079324  0.111035 -0.008702      2.000000
  0.079324 -0.111035  0.008702      2.000000
  0.099155  0.122181 -0.011606      2.000000
 -0.218142  0.056153 -0.034862      2.000000
 -0.198311 -0.045007  0.031958      2.000000
 -0.198311  0.045007 -0.031958      2.000000
 -0.178480 -0.033861  0.029054      2.000000
 -0.178480  0.033861 -0.029054      2.000000
 -0.158649 -0.022715  0.026150      2.000000
 -0.158649  0.022715 -0.026150      2.000000
 -0.138818 -0.011569  0.023245      2.000000
 -0.138818  0.011569 -0.023245      2.000000
 -0.118986 -0.000423  0.020341      2.000000
 -0.118986  0.000423 -0.020341      2.000000
 -0.099155  0.010723  0.017437      2.000000
 -0.099155 -0.010723 -0.017437      2.000000
 -0.079324  0.021868  0.014532      2.000000
 -0.079324 -0.021868 -0.014532      2.000000
 -0.000000  0.088744 -0.002893      2.000000
  0.019831  0.099889 -0.005798      2.000000
  0.019831 -0.099889  0.005798      2.000000
  0.039662  0.111035 -0.008702      2.000000
  0.039662 -0.111035  0.008702      2.000000
  0.059493  0.122181 -0.011606      2.000000
  0.059493 -0.122181  0.011606      2.000000
  0.079324  0.133327 -0.014510      2.000000
 -0.237973  0.045007 -0.031958      2.000000
 -0.218142 -0.033861  0.029054      2.000000
 -0.218142  0.033861 -0.029054      2.000000
 -0.198311 -0.022715  0.026150      2.000000
 -0.198311  0.022715 -0.026150      2.000000
 -0.178480 -0.011569  0.023245      2.000000
 -0.178480  0.011569 -0.023245      2.000000
 -0.158649 -0.000423  0.020341      2.000000
 -0.158649  0.000423 -0.020341      2.000000
 -0.138818  0.010723  0.017437      2.000000
 -0.138818 -0.010723 -0.017437      2.000000
 -0.118986  0.021868  0.014532      2.000000
 -0.118986 -0.021868 -0.014532      2.000000
 -0.099155  0.033014  0.011628      2.000000
 -0.099155 -0.033014 -0.011628      2.000000
 -0.000000  0.111035 -0.008702      2.000000
  0.019831  0.122181 -0.011606      2.000000
  0.019831 -0.122181  0.011606      2.000000
  0.039662  0.133327 -0.014510      2.000000
  0.039662 -0.133327  0.014510      2.000000
  0.059493  0.144473 -0.017415      2.000000
 -0.257804  0.033861 -0.029054      2.000000
 -0.237973 -0.022715  0.026150      2.000000
 -0.237973  0.022715 -0.026150      2.000000
 -0.218142 -0.011569  0.023245      2.000000
 -0.218142  0.011569 -0.023245      2.000000
 -0.198311 -0.000423  0.020341      2.000000
 -0.198311  0.000423 -0.020341      2.000000
 -0.178480  0.010723  0.017437      2.000000
 -0.178480 -0.010723 -0.017437      2.000000
 -0.158649  0.021868  0.014532      2.000000
 -0.158649 -0.021868 -0.014532      2.000000
 -0.138818  0.033014  0.011628      2.000000
 -0.138818 -0.033014 -0.011628      2.000000
 -0.118986  0.044160  0.008724      2.000000
 -0.118986 -0.044160 -0.008724      2.000000
 -0.000000  0.133327 -0.014510      2.000000
  0.019831  0.144473 -0.017415      2.000000
  0.019831 -0.144473  0.017415      2.000000
  0.039662  0.155619 -0.020319      2.000000
 -0.277635  0.022715 -0.026150      2.000000
 -0.257804 -0.011569  0.023245      2.000000
 -0.257804  0.011569 -0.023245      2.000000
 -0.237973 -0.000423  0.020341      2.000000
 -0.237973  0.000423 -0.020341      2.000000
 -0.218142  0.010723  0.017437      2.000000
 -0.218142 -0.010723 -0.017437      2.000000
 -0.198311  0.021868  0.014532      2.000000
 -0.198311 -0.021868 -0.014532      2.000000
 -0.178480  0.033014  0.011628      2.000000
 -0.178480 -0.033014 -0.011628      2.000000
 -0.158649  0.044160  0.008724      2.000000
 -0.158649 -0.044160 -0.008724      2.000000
 -0.138818  0.055306  0.005820      2.000000
 -0.138818 -0.055306 -0.005820      2.000000
 -0.000000  0.155619 -0.020319      2.000000
  0.019831  0.166765 -0.023223      2.000000
 -0.297466  0.011569 -0.023245      2.000000
 -0.277635 -0.000423  0.020341      2.000000
 -0.277635  0.000423 -0.020341      2.000000
 -0.257804  0.010723  0.017437      2.000000
 -0.257804 -0.010723 -0.017437      2.000000
 -0.237973  0.021868  0.014532      2.000000
 -0.237973 -0.021868 -0.014532      2.000000
 -0.218142  0.033014  0.011628      2.000000
 -0.218142 -0.033014 -0.011628      2.000000
 -0.198311  0.044160  0.008724      2.000000
 -0.198311 -0.044160 -0.008724      2.000000
 -0.178480  0.055306  0.005820      2.000000
 -0.178480 -0.055306 -0.005820      2.000000
 -0.158649  0.066452  0.002915      2.000000
 -0.158649 -0.066452 -0.002915      2.000000
 -0.000000  0.177910 -0.026128      2.000000
 -0.297466  0.010723  0.017437      2.000000
  0.019831  0.167611 -0.063905      2.000000
 -0.277635  0.021868  0.014532      2.000000
  0.039662  0.156465 -0.061001      2.000000
 -0.257804  0.033014  0.011628      2.000000
  0.059493  0.145319 -0.058097      2.000000
 -0.237973  0.044160  0.008724      2.000000
  0.079324  0.134174 -0.055193      2.000000
 -0.218142  0.055306  0.005820      2.000000
  0.099155  0.123028 -0.052288      2.000000
 -0.198311  0.066452  0.002915      2.000000
  0.118986  0.111882 -0.049384      2.000000
 -0.178480  0.077598  0.000011      2.000000
  0.138818  0.100736 -0.046480      2.000000
  0.000000 -0.156465  0.061001      2.000000
  0.019831 -0.145319  0.058097      2.000000
  0.019831  0.145319 -0.058097      2.000000
  0.039662 -0.134174  0.055193      2.000000
  0.039662  0.134174 -0.055193      2.000000
  0.059493 -0.123028  0.052288      2.000000
  0.059493  0.123028 -0.052288      2.000000
  0.079324 -0.111882  0.049384      2.000000
  0.079324  0.111882 -0.049384      2.000000
  0.099155 -0.100736  0.046480      2.000000
  0.099155  0.100736 -0.046480      2.000000
  0.118986 -0.089590  0.043575      2.000000
  0.118986  0.089590 -0.043575      2.000000
  0.000000 -0.134174  0.055193      2.000000
  0.019831 -0.123028  0.052288      2.000000
  0.019831  0.123028 -0.052288      2.000000
  0.039662 -0.111882  0.049384      2.000000
  0.039662  0.111882 -0.049384      2.000000
  0.059493 -0.100736  0.046480      2.000000
  0.059493  0.100736 -0.046480      2.000000
  0.079324 -0.089590  0.043575      2.000000
  0.079324  0.089590 -0.043575      2.000000
  0.099155 -0.078444  0.040671      2.000000
  0.099155  0.078444 -0.040671      2.000000
  0.000000 -0.111882  0.049384      2.000000
  0.019831 -0.100736  0.046480      2.000000
  0.019831  0.100736 -0.046480      2.000000
  0.039662 -0.089590  0.043575      2.000000
  0.039662  0.089590 -0.043575      2.000000
  0.059493 -0.078444  0.040671      2.000000
  0.059493  0.078444 -0.040671      2.000000
  0.079324 -0.067298  0.037767      2.000000
  0.079324  0.067298 -0.037767      2.000000
  0.000000 -0.089590  0.043575      2.000000
  0.019831 -0.078444  0.040671      2.000000
  0.019831  0.078444 -0.040671      2.000000
  0.039662 -0.067298  0.037767      2.000000
  0.039662  0.067298 -0.037767      2.000000
  0.059493 -0.056153  0.034862      2.000000
  0.059493  0.056153 -0.034862      2.000000
  0.000000 -0.067298  0.037767      2.000000
  0.019831 -0.056153  0.034862      2.000000
  0.019831  0.056153 -0.034862      2.000000
  0.039662 -0.045007  0.031958      2.000000
  0.039662  0.045007 -0.031958      2.000000
  0.000000 -0.045007  0.031958      2.000000
  0.019831 -0.033861  0.029054      2.000000
  0.019831  0.033861 -0.029054      2.000000
  0.000000 -0.022715  0.026150      2.000000
 -0.000000 -0.000847  0.040682      2.000000
  0.019831  0.010299  0.037778      2.000000
[...]
   58            eccp                                 10.279722                   164480   5
   59            truncate_high_frequency_w1            0.012052                   164480   5
   60            setup_precond                         5.534634                   164480   5
   61          hamiltmu                             29.176214                      67331   4
   62            vhamil                                2.113933                   538648   5
   63            overl1                                7.219672                   538648   5
   64            vnlac0_acc                            5.708748                   538648   5
   65            kinhamil                              7.712073                   538648   5
   66              fftext_mpi                            5.521571                 538648   6
   67                fft3d_mpi                             3.485329               538648   7
   68                  fft3d                                 3.334764             538648   8
   69          overl                                 6.745096                     912816   4
   70          truncate_high_frequency_w1            0.039271                     538648   4
   71          w1_copy                               5.670692                    1286984   4
   72          orth1                                 1.951541                     201993   4
   73          apply_precond                         1.635202                     374168   4
   74          w1_projall                            2.196059                      46771   4
   75            projmu_acc                            2.152792                    46771   5
   76          fftwav_mpi                            5.355186                     374168   4
   77            fftwav                                4.877719                   374168   5
   78              fft3d                                 2.288273                 374168   6
   79          lincom                                0.131137                       4112   4
   80          m_bcast_z                             0.002217                          8   4
   81          m_sumb_d                              0.000144                         16   4
   82        densta                                0.227753                            8   3
   83          m_sumb_d                              0.005016                        263   4
   84        m_bcast_z                             0.000136                            1   3
   85      rotate_active_occupied_orbital        0.000001                              1   2
   86      sphpro_fast                           0.868900                              2   2
   87        m_sumb_d                              0.014862                            5   3
   88      force_and_stress                     59.004196                              1   2
   89        set_charge                            1.635226                            1   3
   90          soft_charge                           1.339843                          1   4
   91            fftwav_mpi                            0.285182                     9394   5
   92              fftwav                                0.271451                   9394   6
   93                fft3d                                 0.056994                 9394   7
   94            pw_charge                             0.237381                     9394   5
   95            m_sumb_d                              0.001835                        2   5
   96            fft_gq                                0.002110                        1   5
   97              fft3d_mpi                             0.002104                      2   6
   98                fftbas_plan_mpi                       0.002018                    2   7
   99                  dfftw_execute                         0.000087                  6   8
  100                  map_backward                          0.000036                  4   8
  101                    map_gather                            0.000015                2   9
  102          depsum                                0.289456                          1   4
  103            m_sumb_d                              0.000036                        1   5
  104          augmentation_charge                   0.005726                          1   4
  105            fft3d_mpi                             0.001935                        2   5
  106              fftbas_plan_mpi                       0.001586                      2   6
  107                dfftw_execute                         0.001189                    6   7
  108                map_backward                          0.000227                    4   7
  109                  map_gather                            0.000137                  2   8
  110        forloc                                0.000659                            1   3
  111        fornl                                 6.362487                            1   3
  112          phase                                 0.004746                        257   4
  113          m_sumb_d                              0.045376                          2   4
  114        fordep                                0.020801                            1   3
  115          setdij_                               0.020788                          6   4
  116        setdij_                               0.069056                           20   3
  117        set_dd_magatom                        0.000002                            1   3
  118        set_dd_paw                            0.428677                            1   3
  119          m_sumb_d                              0.244694                          7   4
  120        strkin                                0.004355                            1   3
  121          m_sumb_d                              0.000017                          1   4
  122        strelo                                0.001126                            1   3
  123        strenl                               50.239109                            1   3
  124          spher                                13.841612                         19   4
  125          phase                                 0.044351                       2313   4
  126          proj1_acc                            10.013246                     185040   4
  127          m_sumb_d                              0.785179                          1   4
  128        fft3d_mpi                             0.002327                           22   3
  129          fftbas_plan_mpi                       0.001644                         22   4
  130            map_forward                           0.000489                       20   5
  131              map_scatter                           0.000148                     10   6
  132            map_backward                          0.000570                       24   5
  133              map_gather                            0.000231                     12   6
  134        forhar                                0.000941                            2   3
  135        strehar                               0.000735                            1   3
  136        chggra                                0.000589                            1   3
  137          fft3d_mpi                             0.000317                          3   4
  138            fftbas_plan_mpi                       0.000223                        3   5
  139              map_forward                           0.000096                      4   6
  140                map_scatter                           0.000030                    2   7
  141              map_backward                          0.000047                      2   6
  142                map_gather                            0.000019                    1   7
  143          pothar                                0.000067                          1   4
  144        m_bcast_d                             0.002844                            2   3
  145      potlok                                0.004410                              1   2
  146        fft3d_mpi                             0.002813                           26   3
  147          fftbas_plan_mpi                       0.001928                         26   4
  148            map_forward                           0.000675                       28   5
  149              map_scatter                           0.000197                     14   6
  150            map_backward                          0.000578                       24   5
  151              map_gather                            0.000234                     12   6
  152        pothar                                0.000069                            1   3
  153      potlok_metagga                        0.000000                              1   2
  154      set_dd_magatom                        0.000003                              1   2
  155      set_dd_paw                            0.419414                              1   2
  156        m_sumb_d                              0.241320                            7   3
  157      augmentation_charge                   0.005471                              1   2
  158        fft3d_mpi                             0.001814                            2   3
  159          fftbas_plan_mpi                       0.001635                          2   4
  160            dfftw_execute                         0.001248                        6   5
  161            map_backward                          0.000215                        4   5
  162              map_gather                            0.000125                      2   6
  163      densta                                0.055883                              1   2
  164        m_sumb_d                              0.002603                           35   3
 
 Flat profile
 ============
 
             routine name                   CPU           calls
 ---------------------------------------------------------------
 eddav                                  96.222287           8
 strenl                                 25.554722           1
 total_time                             20.022394           1
 spher                                  14.673429          20
 proj1_acc                              11.048226      205600
 eccp                                   10.279722      164480
 overl1                                  7.219672      538648
 w1_copy                                 7.154003     1615944
 overl                                   6.776858      913330
 fft3d                                   6.765648     1086690
 hamiltmu                                6.421788       67331
 fornl                                   6.312365           1
 vnlac0_acc                              5.708748      538648
 setup_precond                           5.534634      164480
 fftwav                                  3.960502      548042
 kinhamil                                2.190502      538648
 acc_init_cublas                         2.153859           1
 projmu_acc                              2.152792       46771
 vhamil                                  2.113933      538648
 fftext_mpi                              2.036242      538648
 orth1                                   1.979602      203535
 apply_precond                           1.635202      374168
 m_sumb_d                                1.599205         371
 init_acc                                1.165060           1
 newband                                 1.079298       71443
 sphpro_fast                             0.854038           2
 soft_charge                             0.813335           1
 proj                                    0.749001         257
 fftwav_mpi                              0.723354      548042
 acc_init_cusolver                       0.698444           1
 set_dd_paw                              0.544395           3
 elmin                                   0.504104           1
 depsum                                  0.289420           1
 densta                                  0.276018           9
 pw_charge                               0.237381        9394
 force_and_stress                        0.235261           1
 choleski                                0.198903         514
 fft3d_mpi                               0.156882      538749
 lincom                                  0.133863        4626
 orthch                                  0.107308           1
 acc_cufft_makeplan                      0.102733          19
 setdij_                                 0.101603          29
 phase                                   0.077191        6940
 truncate_high_frequency_w1              0.051322      703128
 w1_projall                              0.043267       46771
 fftbas_plan_mpi                         0.019535         101
 potlok                                  0.017241           2
 dfftw_execute                           0.016622          72
 augmentation_charge                     0.007448           2
 m_bcast_z                               0.006331          12
 strkin                                  0.004338           1
 m_bcast_d                               0.004053           8
 stufak                                  0.002521           2
 map_forward                             0.002391         100
 map_backward                            0.001667         102
 map_gather                              0.001604          51
 map_scatter                             0.001428          50
 strelo                                  0.001126           1
 forhar                                  0.000941           2
 strehar                                 0.000735           1
 forloc                                  0.000659           1
 crpa_reader                             0.000562           1
 fewald                                  0.000305           1
 pothar                                  0.000224           3
 chggra                                  0.000205           1
 set_charge                              0.000201           1
 rsp                                     0.000058           1
 fordep                                  0.000013           1
 rcp                                     0.000009           1
 vectorpot                               0.000007           2
 set_dd_magatom                          0.000007           3
 fft_gq                                  0.000006           1
 acc_cufft_makeplans                     0.000006           3
 rotate_active_occupied_orbital          0.000001           1
 potlok_metagga                          0.000000           2
 redis_pw_over_bands                     0.000000           1
 ---------------------------------------------------------------
  summed up times     258.7487618923187     
 
 Accumulative profile
 ====================
 
             routine name                   CPU           calls
 ---------------------------------------------------------------
 total_time                            258.748762           1
 elmin                                 171.202130           1
 eddav                                 170.012058           8
 force_and_stress                       59.004196           1
 strenl                                 50.239109           1
 hamiltmu                               29.176214       67331
 newband                                20.863389       71443
 spher                                  14.673429          20
 proj1_acc                              11.048226      205600
 eccp                                   10.279722      164480
 fftwav_mpi                              8.114740      548042
 kinhamil                                7.712073      538648
 fftwav                                  7.391386      548042
 overl1                                  7.219672      538648
 w1_copy                                 7.154003     1615944
 overl                                   6.776858      913330
 fft3d                                   6.765648     1086690
 fornl                                   6.362487           1
 vnlac0_acc                              5.708748      538648
 setup_precond                           5.534634      164480
 fftext_mpi                              5.521571      538648
 fft3d_mpi                               3.534893      538749
 w1_projall                              2.196059       46771
 acc_init_cublas                         2.153859           1
 projmu_acc                              2.152792       46771
 vhamil                                  2.113933      538648
 orth1                                   1.979602      203535
 proj                                    1.783982         257
 set_charge                              1.635226           1
 apply_precond                           1.635202      374168
 m_sumb_d                                1.599205         371
 soft_charge                             1.339843           1
 set_dd_paw                              1.268642           3
 init_acc                                1.165060           1
 sphpro_fast                             0.868900           2
 acc_init_cusolver                       0.698444           1
 orthch                                  0.368761           1
 depsum                                  0.289456           1
 densta                                  0.283636           9
 pw_charge                               0.237381        9394
 choleski                                0.198903         514
 lincom                                  0.133863        4626
 acc_cufft_makeplans                     0.102739           3
 acc_cufft_makeplan                      0.102733          19
 setdij_                                 0.101603          29
 phase                                   0.077191        6940
 truncate_high_frequency_w1              0.051322      703128
 fftbas_plan_mpi                         0.043246         101
 potlok                                  0.031100           2
 fordep                                  0.020801           1
 dfftw_execute                           0.016622          72
 augmentation_charge                     0.011197           2
 m_bcast_z                               0.006331          12
 strkin                                  0.004355           1
 m_bcast_d                               0.004053           8
 map_forward                             0.003819         100
 map_backward                            0.003271         102
 stufak                                  0.002521           2
 fft_gq                                  0.002110           1
 map_gather                              0.001604          51
 map_scatter                             0.001428          50
 strelo                                  0.001126           1
 forhar                                  0.000941           2
 strehar                                 0.000735           1
 forloc                                  0.000659           1
 chggra                                  0.000589           1
 crpa_reader                             0.000562           1
 fewald                                  0.000413           1
 pothar                                  0.000224           3
 rsp                                     0.000058           1
 rcp                                     0.000009           1
 vectorpot                               0.000007           2
 set_dd_magatom                          0.000007           3
 rotate_active_occupied_orbital          0.000001           1
 potlok_metagga                          0.000000           2
 redis_pw_over_bands                     0.000000           1
 ---------------------------------------------------------------
 
Profiling took   1.087692  0.742732  0.002897  0.002838 seconds
Profiling took   0.764496 seconds
